  71  71   0   0
  0.1042497E+02  0.9287202E-09  0.9287204E-09  0.9909069E-09  0.5000000E-16
   1.0000000000000000E-004
  CAR 
 unknown system                          
     18.23619375    -13.96884821  301      5.87075963      1.00000000
    -13.969  0.0000E+00  0.0000E+00
    -13.861  0.0000E+00  0.0000E+00
    -13.754  0.0000E+00  0.0000E+00
    -13.647  0.0000E+00  0.0000E+00
    -13.539  0.0000E+00  0.0000E+00
    -13.432  0.0000E+00  0.0000E+00
    -13.325  0.0000E+00  0.0000E+00
    -13.217  0.0000E+00  0.0000E+00
    -13.110  0.0000E+00  0.0000E+00
    -13.003  0.0000E+00  0.0000E+00
    -12.895  0.0000E+00  0.0000E+00
    -12.788  0.0000E+00  0.0000E+00
    -12.681  0.0000E+00  0.0000E+00
    -12.573  0.0000E+00  0.0000E+00
    -12.466  0.2329E+01  0.2500E+00
    -12.359  0.0000E+00  0.2500E+00
    -12.251  0.1888E+01  0.4526E+00
    -12.144  0.6986E+01  0.1500E+01
    -12.037  0.6986E+01  0.2250E+01
    -11.929  0.6986E+01  0.3000E+01
    -11.822  0.1397E+02  0.4500E+01
    -11.714  0.0000E+00  0.5250E+01
    -11.607  0.7628E-09  0.5250E+01
    -11.500  0.3592E+01  0.5636E+01
    -11.392  0.1296E+02  0.7141E+01
    -11.285  0.1747E+01  0.7438E+01
    -11.178  0.2656E+02  0.1160E+02
    -11.070  0.1849E+02  0.1448E+02
    -10.963  0.7696E+01  0.1533E+02
    -10.856  0.1176E+02  0.1726E+02
    -10.748  0.0000E+00  0.1750E+02
    -10.641  0.9636E+01  0.1853E+02
    -10.534  0.9315E+01  0.2100E+02
    -10.426  0.2933E+02  0.2415E+02
    -10.319  0.4862E+02  0.3047E+02
    -10.212  0.3722E+02  0.3525E+02
    -10.104  0.1575E+02  0.3769E+02
     -9.997  0.2994E+02  0.4096E+02
     -9.890  0.5937E+02  0.4737E+02
     -9.782  0.2653E+02  0.5185E+02
     -9.675  0.2833E+02  0.5654E+02
     -9.567  0.5586E+02  0.6400E+02
     -9.460  0.3491E+02  0.6850E+02
     -9.353  0.1397E+02  0.7000E+02
     -9.245  0.0000E+00  0.7000E+02
     -9.138  0.0000E+00  0.7000E+02
     -9.031  0.7482E+01  0.7080E+02
     -8.923  0.0000E+00  0.7200E+02
     -8.816  0.0000E+00  0.7200E+02
     -8.709  0.0000E+00  0.7200E+02
     -8.601  0.0000E+00  0.7200E+02
     -8.494  0.0000E+00  0.7200E+02
     -8.387  0.0000E+00  0.7200E+02
     -8.279  0.0000E+00  0.7200E+02
     -8.172  0.0000E+00  0.7200E+02
     -8.065  0.0000E+00  0.7200E+02
     -7.957  0.0000E+00  0.7200E+02
     -7.850  0.0000E+00  0.7200E+02
     -7.743  0.0000E+00  0.7200E+02
     -7.635  0.0000E+00  0.7200E+02
     -7.528  0.0000E+00  0.7200E+02
     -7.420  0.0000E+00  0.7200E+02
     -7.313  0.0000E+00  0.7200E+02
     -7.206  0.0000E+00  0.7200E+02
     -7.098  0.0000E+00  0.7200E+02
     -6.991  0.0000E+00  0.7200E+02
     -6.884  0.0000E+00  0.7200E+02
     -6.776  0.0000E+00  0.7200E+02
     -6.669  0.0000E+00  0.7200E+02
     -6.562  0.0000E+00  0.7200E+02
     -6.454  0.0000E+00  0.7200E+02
     -6.347  0.0000E+00  0.7200E+02
     -6.240  0.0000E+00  0.7200E+02
     -6.132  0.0000E+00  0.7200E+02
     -6.025  0.0000E+00  0.7200E+02
     -5.918  0.0000E+00  0.7200E+02
     -5.810  0.0000E+00  0.7200E+02
     -5.703  0.0000E+00  0.7200E+02
     -5.596  0.0000E+00  0.7200E+02
     -5.488  0.0000E+00  0.7200E+02
     -5.381  0.0000E+00  0.7200E+02
     -5.273  0.0000E+00  0.7200E+02
     -5.166  0.0000E+00  0.7200E+02
     -5.059  0.0000E+00  0.7200E+02
     -4.951  0.0000E+00  0.7200E+02
     -4.844  0.0000E+00  0.7200E+02
     -4.737  0.0000E+00  0.7200E+02
     -4.629  0.0000E+00  0.7200E+02
     -4.522  0.0000E+00  0.7200E+02
     -4.415  0.0000E+00  0.7200E+02
     -4.307  0.0000E+00  0.7200E+02
     -4.200  0.0000E+00  0.7200E+02
     -4.093  0.0000E+00  0.7200E+02
     -3.985  0.0000E+00  0.7200E+02
     -3.878  0.0000E+00  0.7200E+02
     -3.771  0.0000E+00  0.7200E+02
     -3.663  0.0000E+00  0.7200E+02
     -3.556  0.0000E+00  0.7200E+02
     -3.449  0.0000E+00  0.7200E+02
     -3.341  0.0000E+00  0.7200E+02
     -3.234  0.0000E+00  0.7200E+02
     -3.126  0.0000E+00  0.7200E+02
     -3.019  0.0000E+00  0.7200E+02
     -2.912  0.0000E+00  0.7200E+02
     -2.804  0.0000E+00  0.7200E+02
     -2.697  0.0000E+00  0.7200E+02
     -2.590  0.0000E+00  0.7200E+02
     -2.482  0.0000E+00  0.7200E+02
     -2.375  0.0000E+00  0.7200E+02
     -2.268  0.0000E+00  0.7200E+02
     -2.160  0.0000E+00  0.7200E+02
     -2.053  0.0000E+00  0.7200E+02
     -1.946  0.1380E-05  0.7200E+02
     -1.838  0.2329E+01  0.7225E+02
     -1.731  0.0000E+00  0.7225E+02
     -1.624  0.8252E-02  0.7225E+02
     -1.516  0.1407E+02  0.7451E+02
     -1.409  0.6986E+01  0.7600E+02
     -1.302  0.8974E+01  0.7696E+02
     -1.194  0.1250E-10  0.7750E+02
     -1.087  0.2683E+02  0.8038E+02
     -0.979  0.3082E+02  0.8556E+02
     -0.872  0.2944E+02  0.8941E+02
     -0.765  0.3363E+02  0.9486E+02
     -0.657  0.3818E+02  0.9935E+02
     -0.550  0.2028E+02  0.1024E+03
     -0.443  0.2311E+02  0.1067E+03
     -0.335  0.2513E+02  0.1107E+03
     -0.228  0.3463E+02  0.1162E+03
     -0.121  0.1503E+02  0.1189E+03
     -0.013  0.9289E+01  0.1200E+03
      0.094  0.1357E+02  0.1215E+03
      0.201  0.1586E+02  0.1237E+03
      0.309  0.9883E+01  0.1261E+03
      0.416  0.1595E+02  0.1282E+03
      0.523  0.2340E+02  0.1308E+03
      0.631  0.4721E+01  0.1315E+03
      0.738  0.4650E+01  0.1327E+03
      0.845  0.3728E+02  0.1368E+03
      0.953  0.2840E+02  0.1410E+03
      1.060  0.2393E+02  0.1438E+03
      1.168  0.1233E+02  0.1458E+03
      1.275  0.1484E+02  0.1488E+03
      1.382  0.1456E+02  0.1521E+03
      1.490  0.2699E+02  0.1554E+03
      1.597  0.1863E+02  0.1575E+03
      1.704  0.2556E+02  0.1602E+03
      1.812  0.2362E+02  0.1635E+03
      1.919  0.2967E+02  0.1672E+03
      2.026  0.2555E+02  0.1707E+03
      2.134  0.2092E+02  0.1730E+03
      2.241  0.1918E+02  0.1758E+03
      2.348  0.2272E+02  0.1794E+03
      2.456  0.2096E+02  0.1823E+03
      2.563  0.1638E+02  0.1840E+03
      2.670  0.3868E+02  0.1902E+03
      2.778  0.3922E+02  0.1982E+03
      2.885  0.3923E+02  0.2030E+03
      2.992  0.4678E+02  0.2080E+03
      3.100  0.3388E+02  0.2131E+03
      3.207  0.3572E+02  0.2178E+03
      3.315  0.3672E+02  0.2239E+03
      3.422  0.5104E+02  0.2300E+03
      3.529  0.5251E+02  0.2359E+03
      3.637  0.5557E+02  0.2435E+03
      3.744  0.2943E+02  0.2482E+03
      3.851  0.5598E+02  0.2568E+03
      3.959  0.2769E+02  0.2615E+03
      4.066  0.2704E+02  0.2659E+03
      4.173  0.1990E+02  0.2709E+03
      4.281  0.1851E+02  0.2747E+03
      4.388  0.8224E+01  0.2764E+03
      4.495  0.1308E+02  0.2799E+03
      4.603  0.6285E-08  0.2803E+03
      4.710  0.4112E+01  0.2807E+03
      4.817  0.6970E+01  0.2820E+03
      4.925  0.0000E+00  0.2820E+03
      5.032  0.0000E+00  0.2820E+03
      5.139  0.8300E-13  0.2820E+03
      5.247  0.1397E+02  0.2835E+03
      5.354  0.0000E+00  0.2835E+03
      5.462  0.0000E+00  0.2835E+03
      5.569  0.0000E+00  0.2835E+03
      5.676  0.2498E+00  0.2835E+03
      5.784  0.2329E+01  0.2840E+03
      5.891  0.1392E+02  0.2855E+03
      5.998  0.2329E+02  0.2880E+03
      6.106  0.0000E+00  0.2880E+03
      6.213  0.0000E+00  0.2880E+03
      6.320  0.0000E+00  0.2880E+03
      6.428  0.0000E+00  0.2880E+03
      6.535  0.0000E+00  0.2880E+03
      6.642  0.0000E+00  0.2880E+03
      6.750  0.0000E+00  0.2880E+03
      6.857  0.0000E+00  0.2880E+03
      6.964  0.0000E+00  0.2880E+03
      7.072  0.0000E+00  0.2880E+03
      7.179  0.0000E+00  0.2880E+03
      7.286  0.0000E+00  0.2880E+03
      7.394  0.0000E+00  0.2880E+03
      7.501  0.0000E+00  0.2880E+03
      7.609  0.0000E+00  0.2880E+03
      7.716  0.0000E+00  0.2880E+03
      7.823  0.0000E+00  0.2880E+03
      7.931  0.0000E+00  0.2880E+03
      8.038  0.0000E+00  0.2880E+03
      8.145  0.0000E+00  0.2880E+03
      8.253  0.0000E+00  0.2880E+03
      8.360  0.0000E+00  0.2880E+03
      8.467  0.0000E+00  0.2880E+03
      8.575  0.0000E+00  0.2880E+03
      8.682  0.0000E+00  0.2880E+03
      8.789  0.0000E+00  0.2880E+03
      8.897  0.0000E+00  0.2880E+03
      9.004  0.0000E+00  0.2880E+03
      9.111  0.0000E+00  0.2880E+03
      9.219  0.0000E+00  0.2880E+03
      9.326  0.0000E+00  0.2880E+03
      9.433  0.0000E+00  0.2880E+03
      9.541  0.0000E+00  0.2880E+03
      9.648  0.0000E+00  0.2880E+03
      9.756  0.0000E+00  0.2880E+03
      9.863  0.0000E+00  0.2880E+03
      9.970  0.0000E+00  0.2880E+03
     10.078  0.0000E+00  0.2880E+03
     10.185  0.0000E+00  0.2880E+03
     10.292  0.0000E+00  0.2880E+03
     10.400  0.0000E+00  0.2880E+03
     10.507  0.0000E+00  0.2880E+03
     10.614  0.0000E+00  0.2880E+03
     10.722  0.0000E+00  0.2880E+03
     10.829  0.0000E+00  0.2880E+03
     10.936  0.0000E+00  0.2880E+03
     11.044  0.1792E-05  0.2880E+03
     11.151  0.2329E+01  0.2882E+03
     11.258  0.0000E+00  0.2882E+03
     11.366  0.0000E+00  0.2882E+03
     11.473  0.0000E+00  0.2882E+03
     11.580  0.0000E+00  0.2882E+03
     11.688  0.0000E+00  0.2882E+03
     11.795  0.4657E+01  0.2887E+03
     11.903  0.1397E+02  0.2902E+03
     12.010  0.2218E+01  0.2905E+03
     12.117  0.1565E+02  0.2922E+03
     12.225  0.0000E+00  0.2922E+03
     12.332  0.1143E+02  0.2935E+03
     12.439  0.1863E+02  0.2957E+03
     12.547  0.2455E+02  0.2991E+03
     12.654  0.4882E+02  0.3060E+03
     12.761  0.2105E+02  0.3090E+03
     12.869  0.2327E+02  0.3120E+03
     12.976  0.1164E+02  0.3150E+03
     13.083  0.4192E+02  0.3195E+03
     13.191  0.1175E+02  0.3208E+03
     13.298  0.9072E+01  0.3225E+03
     13.405  0.7647E+01  0.3241E+03
     13.513  0.9644E+01  0.3263E+03
     13.620  0.2584E+02  0.3295E+03
     13.727  0.2268E+02  0.3329E+03
     13.835  0.1804E+02  0.3349E+03
     13.942  0.3825E+02  0.3399E+03
     14.050  0.2071E+02  0.3427E+03
     14.157  0.2111E+02  0.3450E+03
     14.264  0.2199E+02  0.3481E+03
     14.372  0.8184E+01  0.3506E+03
     14.479  0.7643E+01  0.3518E+03
     14.586  0.1407E+02  0.3538E+03
     14.694  0.4539E-07  0.3540E+03
     14.801  0.1398E+02  0.3555E+03
     14.908  0.1397E+02  0.3577E+03
     15.016  0.3066E-01  0.3578E+03
     15.123  0.6983E+01  0.3595E+03
     15.230  0.1164E+02  0.3607E+03
     15.338  0.1263E+02  0.3621E+03
     15.445  0.2104E+01  0.3627E+03
     15.552  0.4658E+01  0.3633E+03
     15.660  0.1120E+02  0.3645E+03
     15.767  0.1130E+02  0.3665E+03
     15.874  0.2493E+02  0.3702E+03
     15.982  0.2850E+02  0.3748E+03
     16.089  0.1362E+02  0.3787E+03
     16.197  0.6986E+01  0.3797E+03
     16.304  0.7114E+01  0.3805E+03
     16.411  0.1396E+02  0.3827E+03
     16.519  0.0000E+00  0.3835E+03
     16.626  0.0000E+00  0.3835E+03
     16.733  0.2329E+01  0.3838E+03
     16.841  0.2329E+01  0.3840E+03
     16.948  0.0000E+00  0.3840E+03
     17.055  0.0000E+00  0.3840E+03
     17.163  0.0000E+00  0.3840E+03
     17.270  0.0000E+00  0.3840E+03
     17.377  0.0000E+00  0.3840E+03
     17.485  0.0000E+00  0.3840E+03
     17.592  0.0000E+00  0.3840E+03
     17.699  0.0000E+00  0.3840E+03
     17.807  0.0000E+00  0.3840E+03
     17.914  0.0000E+00  0.3840E+03
     18.021  0.0000E+00  0.3840E+03
     18.129  0.0000E+00  0.3840E+03
     18.236  0.0000E+00  0.3840E+03
