       N       E                     dE             d eps       ncg     rms          ort
DAV:   1     0.130116385944E+05    0.13012E+05   -0.67822E+05   768   0.200E+03
DAV:   2     0.150462527530E+04   -0.11507E+05   -0.11029E+05   768   0.889E+02
DAV:   3     0.214665317375E+03   -0.12900E+04   -0.12751E+04   768   0.229E+02
DAV:   4     0.160687160283E+03   -0.53978E+02   -0.53835E+02   768   0.479E+01
DAV:   5     0.159960189096E+03   -0.72697E+00   -0.72674E+00   768   0.638E+00
SDA:   6    -0.633861107923E+03   -0.79382E+03   -0.72674E+00   768   0.467E+02 0.000E+00
CGA:   7    -0.642047834801E+03   -0.81867E+01   -0.66529E+01   768   0.437E+01 0.110E+02
CGA:   8    -0.642862827798E+03   -0.81499E+00   -0.62774E+00   768   0.413E+01 0.740E+00
CGA:   9    -0.643138084039E+03   -0.27526E+00   -0.39867E+00   768   0.819E+00-0.361E+00
CGA:  10    -0.643327708618E+03   -0.18962E+00   -0.20942E+00   768   0.109E+01-0.231E+00
CGA:  11    -0.643345164268E+03   -0.17456E-01   -0.54654E-01   768   0.249E+00-0.214E+00
CGA:  12    -0.643380274757E+03   -0.35110E-01   -0.31145E-01   768   0.372E+00-0.373E-01
CGA:  13    -0.643406361068E+03   -0.26086E-01   -0.31230E-01   768   0.803E-01-0.969E-02
CGA:  14    -0.643426413967E+03   -0.20053E-01   -0.19804E-01   768   0.241E-01 0.249E-02
CGA:  15    -0.643432584996E+03   -0.61710E-02   -0.61662E-02   768   0.683E-02 0.631E-04
CGA:  16    -0.643434569789E+03   -0.19848E-02   -0.20048E-02   768   0.223E-02-0.187E-03
CGA:  17    -0.643435194840E+03   -0.62505E-03   -0.62946E-03   768   0.752E-03-0.447E-04
CGA:  18    -0.643435391742E+03   -0.19690E-03   -0.19458E-03   768   0.249E-03 0.346E-04
CGA:  19    -0.643435464289E+03   -0.72547E-04   -0.71680E-04   768   0.747E-04 0.115E-04
CGA:  20    -0.643435489713E+03   -0.25424E-04   -0.26483E-04   768   0.319E-04-0.765E-05
CGA:  21    -0.643435498731E+03   -0.90185E-05   -0.91521E-05   768   0.125E-04-0.128E-05
   1 F= -.64343550E+03 E0= -.64343453E+03  d E =-.192829E-02
