       N       E                     dE             d eps       ncg     rms          rms(c)
DAV:   1    -0.664884842804E+03   -0.66488E+03   -0.10178E-05 35264   0.884E-03    0.239E-02
DAV:   2    -0.664884842852E+03   -0.48197E-07   -0.12510E-06 38720   0.295E-03    0.181E-02
DAV:   3    -0.664884842779E+03    0.73532E-07   -0.25015E-07 39744   0.130E-03    0.132E-02
DAV:   4    -0.664884842716E+03    0.62327E-07   -0.82852E-08 43680   0.746E-04    0.942E-03
DAV:   5    -0.664884842672E+03    0.44641E-07   -0.30092E-08 39104   0.461E-04    0.639E-03
DAV:   6    -0.664884842641E+03    0.30499E-07   -0.96834E-09 32000   0.291E-04    0.401E-03
DAV:   7    -0.664884842622E+03    0.19092E-07   -0.38327E-09 24448   0.213E-04    0.236E-03
DAV:   8    -0.664884842611E+03    0.11448E-07   -0.17267E-09 24192   0.177E-04
   1 F= -.66488484E+03 E0= -.66488484E+03  d E =-.481660E-31
