 vasp.5.4.1 24Jun15 (build Oct 18 2022 00:58:31) complex                         
 executed on        GCC_CrayMPICH date 2024.09.09  19:12:57
 running on 1024 total cores
 distrk:  each k-point on  128 cores,    8 groups
 distr:  one band on NCORES_PER_BAND=   4 cores,   32 groups


--------------------------------------------------------------------------------------------------------


 INCAR:
 POTCAR:    PAW_PBE Al 04Jan2001                  
 POTCAR:    PAW_PBE N 08Apr2002                   

 ----------------------------------------------------------------------------- 
|                                                                             |
|           W    W    AA    RRRRR   N    N  II  N    N   GGGG   !!!           |
|           W    W   A  A   R    R  NN   N  II  NN   N  G    G  !!!           |
|           W    W  A    A  R    R  N N  N  II  N N  N  G       !!!           |
|           W WW W  AAAAAA  RRRRR   N  N N  II  N  N N  G  GGG   !            |
|           WW  WW  A    A  R   R   N   NN  II  N   NN  G    G                |
|           W    W  A    A  R    R  N    N  II  N    N   GGGG   !!!           |
|                                                                             |
|      For optimal performance we recommend to set                            |
|        NCORE= 4 - approx SQRT( number of cores)                             |
|      NCORE specifies how many cores store one orbital (NPAR=cpu/NCORE).     |
|      This setting can  greatly improve the performance of VASP for DFT.     |
|      The default, NPAR=number of cores might be grossly inefficient         |
|      on modern multi-core architectures or massively parallel machines.     |
|      Do your own testing !!!!                                               |
|      Unfortunately you need to use the default for GW and RPA calculations. |
|      (for HF NCORE is supported but not extensively tested yet)             |
|                                                                             |
 ----------------------------------------------------------------------------- 


 ----------------------------------------------------------------------------- 
|                                                                             |
|           W    W    AA    RRRRR   N    N  II  N    N   GGGG   !!!           |
|           W    W   A  A   R    R  NN   N  II  NN   N  G    G  !!!           |
|           W    W  A    A  R    R  N N  N  II  N N  N  G       !!!           |
|           W WW W  AAAAAA  RRRRR   N  N N  II  N  N N  G  GGG   !            |
|           WW  WW  A    A  R   R   N   NN  II  N   NN  G    G                |
|           W    W  A    A  R    R  N    N  II  N    N   GGGG   !!!           |
|                                                                             |
|      You have enabled k-point parallelism (KPAR>1).                         |
|      This developmental code was originally  written by Paul Kent at ORNL,  |
|      and carefully double checked in Vienna.                                |
|      GW as well as linear response parallelism added by Martijn Marsman     |
|      and Georg Kresse.                                                      |
|      Carefully verify results versus KPAR=1.                                |
|      Report problems to Paul Kent and Vienna.                               |
|                                                                             |
 ----------------------------------------------------------------------------- 

 POTCAR:    PAW_PBE Al 04Jan2001                  
   VRHFIN =Al: s2p1                                                             
   LEXCH  = PE                                                                  
   EATOM  =    53.5387 eV,    3.9350 Ry                                         
                                                                                
   TITEL  = PAW_PBE Al 04Jan2001                                                
   LULTRA =        F    use ultrasoft PP ?                                      
   IUNSCR =        1    unscreen: 0-lin 1-nonlin 2-no                           
   RPACOR =    1.500    partial core radius                                     
   POMASS =   26.981; ZVAL   =    3.000    mass and valenz                      
   RCORE  =    1.900    outmost cutoff radius                                   
   RWIGS  =    2.650; RWIGS  =    1.402    wigner-seitz radius (au A)           
   ENMAX  =  240.300; ENMIN  =  180.225 eV                                      
   ICORE  =        2    local potential                                         
   LCOR   =        T    correct aug charges                                     
   LPAW   =        T    paw PP                                                  
   EAUG   =  291.052                                                            
   DEXC   =    0.000                                                            
   RMAX   =    1.939    core radius for proj-oper                               
   RAUG   =    1.300    factor for augmentation sphere                          
   RDEP   =    1.966    radius for radial grids                                 
   RDEPT  =    1.856    core radius for aug-charge                              
                                                                                
   Atomic configuration                                                         
    6 entries                                                                   
     n  l   j            E        occ.                                          
     1  0  0.50     -1511.1048   2.0000                                         
     2  0  0.50      -108.1629   2.0000                                         
     2  1  1.50       -69.6402   6.0000                                         
     3  0  0.50        -7.7528   2.0000                                         
     3  1  1.50        -2.7121   1.0000                                         
     3  2  2.50        -2.7212   0.0000                                         
   Description                                                                  
     l       E           TYP  RCUT    TYP  RCUT                                 
     0     -7.7528455     23  1.900                                             
     0     -3.3096929     23  1.900                                             
     1     -2.7120682     23  1.900                                             
     1     13.6058260     23  1.900                                             
     2     -2.7211652      7  1.900                                             
  local pseudopotential read in
  partial core-charges read in
  partial kinetic energy density read in
  atomic valenz-charges read in
  non local Contribution for L=           0  read in
    real space projection operators read in
  non local Contribution for L=           0  read in
    real space projection operators read in
  non local Contribution for L=           1  read in
    real space projection operators read in
  non local Contribution for L=           1  read in
    real space projection operators read in
    PAW grid and wavefunctions read in

   number of l-projection  operators is LMAX  =           4
   number of lm-projection operators is LMMAX =           8

 POTCAR:    PAW_PBE N 08Apr2002                   
   VRHFIN =N: s2p3                                                              
   LEXCH  = PE                                                                  
   EATOM  =   264.5486 eV,   19.4438 Ry                                         
                                                                                
   TITEL  = PAW_PBE N 08Apr2002                                                 
   LULTRA =        F    use ultrasoft PP ?                                      
   IUNSCR =        1    unscreen: 0-lin 1-nonlin 2-no                           
   RPACOR =    1.200    partial core radius                                     
   POMASS =   14.001; ZVAL   =    5.000    mass and valenz                      
   RCORE  =    1.500    outmost cutoff radius                                   
   RWIGS  =    1.400; RWIGS  =    0.741    wigner-seitz radius (au A)           
   ENMAX  =  400.000; ENMIN  =  300.000 eV                                      
   ICORE  =        2    local potential                                         
   LCOR   =        T    correct aug charges                                     
   LPAW   =        T    paw PP                                                  
   EAUG   =  627.112                                                            
   DEXC   =    0.000                                                            
   RMAX   =    1.529    core radius for proj-oper                               
   RAUG   =    1.300    factor for augmentation sphere                          
   RDEP   =    1.514    radius for radial grids                                 
   RDEPT  =    1.338    core radius for aug-charge                              
                                                                                
   Atomic configuration                                                         
    4 entries                                                                   
     n  l   j            E        occ.                                          
     1  0  0.50      -384.7179   2.0000                                         
     2  0  0.50       -18.5828   2.0000                                         
     2  1  0.50        -7.0898   3.0000                                         
     3  2  1.50        -6.8029   0.0000                                         
   Description                                                                  
     l       E           TYP  RCUT    TYP  RCUT                                 
     0    -18.5828119     23  1.200                                             
     0    -13.5018863     23  1.200                                             
     1     -7.0897853     23  1.500                                             
     1      9.5240782     23  1.500                                             
     2     -6.8029130      7  1.500                                             
  local pseudopotential read in
  partial core-charges read in
  partial kinetic energy density read in
  atomic valenz-charges read in
  non local Contribution for L=           0  read in
    real space projection operators read in
  non local Contribution for L=           0  read in
    real space projection operators read in
  non local Contribution for L=           1  read in
    real space projection operators read in
  non local Contribution for L=           1  read in
    real space projection operators read in
    PAW grid and wavefunctions read in

   number of l-projection  operators is LMAX  =           4
   number of lm-projection operators is LMMAX =           8

 Optimization of the real space projectors (new method)

 maximal supplied QI-value         = 19.84
 optimisation between [QCUT,QGAM] = [ 11.31, 22.82] = [ 35.82,145.81] Ry 
 Optimized for a Real-space Cutoff    1.07 Angstroem

   l    n(q)    QCUT    max X(q) W(low)/X(q) W(high)/X(q)  e(spline) 
   0      7    11.310   176.870    0.43E-03    0.33E-03    0.78E-07
   0      7    11.310   105.762    0.41E-03    0.33E-03    0.76E-07
   1      7    11.310    55.370    0.40E-03    0.29E-03    0.65E-07
   1      7    11.310    20.208    0.38E-03    0.25E-03    0.60E-07
 Optimization of the real space projectors (new method)

 maximal supplied QI-value         = 25.13
 optimisation between [QCUT,QGAM] = [ 11.31, 22.87] = [ 35.82,146.48] Ry 
 Optimized for a Real-space Cutoff    1.27 Angstroem

   l    n(q)    QCUT    max X(q) W(low)/X(q) W(high)/X(q)  e(spline) 
   0      9    11.310    79.467    0.75E-04    0.16E-03    0.36E-06
   0      9    11.310    66.151    0.74E-04    0.16E-03    0.36E-06
   1      8    11.310    17.416    0.35E-03    0.12E-03    0.95E-06
   1      8    11.310    12.382    0.37E-03    0.13E-03    0.98E-06
  PAW_PBE Al 04Jan2001                  :
 energy of atom  1       EATOM=  -53.5387
 kinetic energy error for atom=    0.0003 (will be added to EATOM!!)
  PAW_PBE N 08Apr2002                   :
 energy of atom  2       EATOM= -264.5486
 kinetic energy error for atom=    0.0138 (will be added to EATOM!!)


 POSCAR: Al2 N2                                  
  positions in direct lattice
  velocities in cartesian coordinates
 exchange correlation table for  LEXCH =        8
   RHO(1)=    0.500       N(1)  =     2000
   RHO(2)=  100.500       N(2)  =     4000



--------------------------------------------------------------------------------------------------------


 ion  position               nearest neighbor table
   1  0.647  0.353  0.884-  65 1.83  71 1.94  63 1.94  29 2.34  17 2.35   9 2.35  35 2.49  27 2.49
                            15 2.51
   2  0.110  0.222  0.500-  56 1.86  68 1.87  58 1.88  39 1.89  20 3.01  21 3.02  33 3.02  23 3.03
                            32 3.04  22 3.06  14 3.07  18 3.08   4 3.08   8 3.09   6 3.10  10 3.11
   3  0.110  0.223  0.997-  69 1.88  59 1.88  57 1.88  38 1.89   9 2.97  15 3.01  23 3.05  33 3.05
                            22 3.07  32 3.08   5 3.08  21 3.09  20 3.09  19 3.10  11 3.10   7 3.10
   4  0.114  0.556  0.499-  58 1.87  70 1.87  60 1.88  41 1.90  35 2.92  34 3.01  22 3.03  25 3.04
                            12 3.06  23 3.06  10 3.06  24 3.07  16 3.07   2 3.08   6 3.11  14 3.11
   5  0.112  0.556  0.996-  61 1.88  40 1.88  59 1.88  71 1.97  25 3.04  24 3.06  23 3.07  22 3.07
                            34 3.08   3 3.08  13 3.09  17 3.09  11 3.09   7 3.10  15 3.10  35 3.18
   6  0.111  0.889  0.502-  72 1.86  56 1.86  43 1.89  60 1.89  37 2.99  21 2.99  36 3.01  20 3.01
                             8 3.02  16 3.02  25 3.02  24 3.10  18 3.10   2 3.10  12 3.11   4 3.11
   7  0.111  0.889  0.995-  73 1.87  57 1.87  61 1.88  42 1.88   9 2.92  17 2.92  25 3.04  37 3.06
                            21 3.06  24 3.07  36 3.09  20 3.09  19 3.10   3 3.10  13 3.10   5 3.10
   8  0.436  0.212  0.478-  45 1.84  56 1.86  62 1.87  64 1.90  29 2.75  20 2.87  26 2.88  28 3.01
                             6 3.02  27 3.05  12 3.07   2 3.09  14 3.15  21 3.15  10 3.17  16 3.27
   9  0.419  0.206  0.030-  44 1.81  57 1.82  65 1.90  63 1.98   1 2.35  20 2.78  28 2.85   7 2.92
                            26 2.93   3 2.97  13 3.09  11 3.15  21 3.24  15 3.34
  10  0.444  0.556  0.492-  58 1.87  66 1.87  64 1.89  47 1.91  29 2.76  22 3.00  30 3.00   4 3.06
                            12 3.06  28 3.07  23 3.07  31 3.07   2 3.11  18 3.11  16 3.17   8 3.17
  11  0.444  0.556  0.006-  65 1.88  46 1.89  59 1.89  67 1.89  28 2.93  22 3.01  30 3.01   5 3.09
                            13 3.09   3 3.10  19 3.10  23 3.10  31 3.10  17 3.15   9 3.15
  12  0.444  0.886  0.499-  66 1.87  62 1.87  60 1.88  49 1.90  27 2.92  26 3.01  30 3.03  25 3.04
                             4 3.06  31 3.06  10 3.06  24 3.07   8 3.07  18 3.08   6 3.11  14 3.11
  13  0.444  0.888  0.996-  61 1.88  48 1.88  67 1.88  63 1.97  25 3.04  24 3.06  31 3.07  30 3.07
                            26 3.08  19 3.08   5 3.09   9 3.09  11 3.09   7 3.10  15 3.10  27 3.18
  14  0.779  0.221  0.497-  68 1.86  62 1.87  70 1.87  51 1.88  27 2.96  35 2.96  26 3.01  34 3.01
                            32 3.01  33 3.04   2 3.07  18 3.07   4 3.11  12 3.11   8 3.15  16 3.15
  15  0.783  0.217  0.007-  69 1.83  50 1.84  63 1.95  71 1.95   1 2.51  32 2.96   3 3.01  19 3.01
                            26 3.04  34 3.04  33 3.08   5 3.10  13 3.10  27 3.32  35 3.32   9 3.34
  16  0.788  0.564  0.478-  53 1.84  72 1.86  70 1.87  64 1.90  29 2.75  36 2.87  34 2.88  28 3.01
                             6 3.02  35 3.05   4 3.07  18 3.09  14 3.15  37 3.15  10 3.17   8 3.27
  17  0.794  0.581  0.030-  52 1.81  73 1.82  65 1.90  71 1.98   1 2.35  36 2.78  28 2.85   7 2.92
                            34 2.93  19 2.97   5 3.09  11 3.15  37 3.24  15 3.34
  18  0.778  0.890  0.500-  72 1.86  68 1.87  66 1.88  55 1.89  36 3.01  37 3.02  33 3.02  31 3.03
                            32 3.04  30 3.06  14 3.07   2 3.08  12 3.08  16 3.09   6 3.10  10 3.11
  19  0.777  0.890  0.997-  69 1.88  67 1.88  73 1.88  54 1.89  17 2.97  15 3.01  31 3.05  33 3.05
                            30 3.07  32 3.08  13 3.08  37 3.09  36 3.09   3 3.10  11 3.10   7 3.10
  20  0.210  0.105  0.254-  56 1.82  44 1.86  42 1.87  38 1.87   9 2.78   8 2.87  36 2.93  32 3.01
                             2 3.01   6 3.01   3 3.09  24 3.09   7 3.09  22 3.11  28 3.18  26 3.21
  21  0.223  0.111  0.744-  45 1.83  43 1.86  39 1.87  57 1.93   6 2.99   2 3.02  27 3.05   7 3.06
                            23 3.06   3 3.09  37 3.10  25 3.10  33 3.10  29 3.15   8 3.15   9 3.24
  22  0.220  0.444  0.250-  46 1.85  58 1.88  40 1.88  38 1.89  10 3.00  11 3.01  34 3.02   4 3.03
                             2 3.06   3 3.07   5 3.07  32 3.09  24 3.09  20 3.11  28 3.11  30 3.12
  23  0.228  0.443  0.747-  39 1.87  47 1.88  41 1.88  59 1.90   2 3.03   3 3.05  31 3.05   4 3.06
                            21 3.06  10 3.07   5 3.07  11 3.10  33 3.12  25 3.13  35 3.17  29 3.24
  24  0.222  0.778  0.247-  42 1.88  48 1.89  40 1.89  60 1.90  13 3.06   5 3.06   7 3.07  12 3.07
                             4 3.07  26 3.07  34 3.07  36 3.09  20 3.09  30 3.09  22 3.09   6 3.10
  25  0.223  0.777  0.748-  43 1.87  49 1.87  41 1.87  61 1.89   6 3.02  12 3.04   4 3.04  13 3.04
                             5 3.04   7 3.04  27 3.07  35 3.07  37 3.10  21 3.10  31 3.13  23 3.13
  26  0.556  0.105  0.253-  62 1.85  48 1.86  44 1.86  50 1.88   8 2.88   9 2.93  14 3.01  12 3.01
                            30 3.02  15 3.04  32 3.07  24 3.07  13 3.08  34 3.14  28 3.17  20 3.21
  27  0.550  0.110  0.731-  49 1.86  45 1.86  51 1.89  63 2.09   1 2.49  12 2.92  14 2.96  29 2.97
                             8 3.05  21 3.05  25 3.07  33 3.14  35 3.16  31 3.17  13 3.18  15 3.32
  28  0.555  0.445  0.241-  46 1.88  52 1.91  44 1.91  64 1.98  65 2.32  17 2.85   9 2.85  11 2.93
                            16 3.01   8 3.01  10 3.07  22 3.11  30 3.11  34 3.17  26 3.17  20 3.18
  29  0.566  0.434  0.688-  47 1.89  53 1.90  45 1.90   1 2.34  64 2.46  16 2.75   8 2.75  10 2.76
                            35 2.97  27 2.97  21 3.15  37 3.15  23 3.24  31 3.24
  30  0.556  0.780  0.250-  46 1.85  66 1.88  48 1.88  54 1.89  10 3.00  11 3.01  26 3.02  12 3.03
                            18 3.06  19 3.07  13 3.07  32 3.09  24 3.09  36 3.11  28 3.11  22 3.12
  31  0.557  0.772  0.747-  55 1.87  47 1.88  49 1.88  67 1.90  18 3.03  19 3.05  23 3.05  12 3.06
                            37 3.06  10 3.07  13 3.07  11 3.10  33 3.12  25 3.13  27 3.17  29 3.24
  32  0.890  0.110  0.251-  68 1.87  38 1.88  54 1.88  50 1.89  15 2.96  20 3.01  36 3.01  14 3.01
                             2 3.04  18 3.04  26 3.07  34 3.07   3 3.08  19 3.08  22 3.09  30 3.09
  33  0.889  0.111  0.747-  39 1.87  55 1.87  51 1.87  69 1.90   2 3.02  18 3.02  14 3.04   3 3.05
                            19 3.05  15 3.08  21 3.10  37 3.10  23 3.12  31 3.12  27 3.14  35 3.14
  34  0.895  0.444  0.253-  70 1.85  40 1.86  52 1.86  50 1.88  16 2.88  17 2.93  14 3.01   4 3.01
                            22 3.02  15 3.04  32 3.07  24 3.07   5 3.08  26 3.14  28 3.17  36 3.21
  35  0.890  0.450  0.731-  41 1.86  53 1.86  51 1.89  71 2.09   1 2.49   4 2.92  14 2.96  29 2.97
                            16 3.05  37 3.05  25 3.07  33 3.14  27 3.16  23 3.17   5 3.18  15 3.32
  36  0.895  0.790  0.254-  72 1.82  52 1.86  42 1.87  54 1.87  17 2.78  16 2.87  20 2.93  32 3.01
                            18 3.01   6 3.01  19 3.09  24 3.09   7 3.09  30 3.11  28 3.18  34 3.21
  37  0.889  0.777  0.744-  53 1.83  43 1.86  55 1.87  73 1.93   6 2.99  18 3.02  35 3.05   7 3.06
                            31 3.06  19 3.09  21 3.10  25 3.10  33 3.10  29 3.15  16 3.15  17 3.24
  38  0.110  0.223  0.188-  20 1.87  32 1.88   3 1.89  22 1.89
  39  0.110  0.222  0.691-  33 1.87  23 1.87  21 1.87   2 1.89
  40  0.111  0.555  0.186-  34 1.86   5 1.88  22 1.88  24 1.89
  41  0.116  0.555  0.691-  35 1.86  25 1.87  23 1.88   4 1.90
  42  0.111  0.889  0.185-  36 1.87  20 1.87   7 1.88  24 1.88
  43  0.112  0.888  0.693-  37 1.86  21 1.86  25 1.87   6 1.89
  44  0.436  0.210  0.212-   9 1.81  20 1.86  26 1.86  28 1.91
  45  0.427  0.202  0.663-  21 1.83   8 1.84  27 1.86  29 1.90
  46  0.441  0.559  0.197-  22 1.85  30 1.85  28 1.88  11 1.89
  47  0.449  0.551  0.685-  23 1.88  31 1.88  29 1.89  10 1.91
  48  0.445  0.889  0.186-  26 1.86  13 1.88  30 1.88  24 1.89
  49  0.445  0.884  0.691-  27 1.86  25 1.87  31 1.88  12 1.90
  50  0.778  0.222  0.192-  15 1.84  26 1.88  34 1.88  32 1.89
  51  0.779  0.221  0.687-  33 1.87  14 1.88  27 1.89  35 1.89
  52  0.790  0.564  0.212-  17 1.81  36 1.86  34 1.86  28 1.91
  53  0.798  0.573  0.663-  37 1.83  16 1.84  35 1.86  29 1.90
  54  0.777  0.890  0.188-  36 1.87  32 1.88  19 1.89  30 1.89
  55  0.778  0.890  0.691-  33 1.87  31 1.87  37 1.87  18 1.89
  56  0.211  0.106  0.438-  20 1.82   8 1.86   2 1.86   6 1.86
  57  0.221  0.112  0.939-   9 1.82   7 1.87   3 1.88  21 1.93
  58  0.221  0.443  0.440-   4 1.87  10 1.87   2 1.88  22 1.88
  59  0.224  0.445  0.939-   3 1.88   5 1.88  11 1.89  23 1.90
  60  0.222  0.778  0.439-  12 1.88   4 1.88   6 1.89  24 1.90
  61  0.222  0.778  0.939-   7 1.88  13 1.88   5 1.88  25 1.89
  62  0.558  0.106  0.439-  26 1.85  14 1.87  12 1.87   8 1.87
  63  0.556  0.124  0.942-   1 1.94  15 1.95  13 1.97   9 1.98  27 2.09
  64  0.557  0.443  0.441-  10 1.89  16 1.90   8 1.90  28 1.98  29 2.46
  65  0.561  0.439  0.007-   1 1.83  11 1.88  17 1.90   9 1.90  28 2.32
  66  0.557  0.779  0.440-  12 1.87  10 1.87  18 1.88  30 1.88
  67  0.555  0.776  0.939-  19 1.88  13 1.88  11 1.89  31 1.90
  68  0.889  0.111  0.439-  14 1.86  32 1.87   2 1.87  18 1.87
  69  0.889  0.111  0.939-  15 1.83   3 1.88  19 1.88  33 1.90
  70  0.894  0.442  0.439-  34 1.85  14 1.87   4 1.87  16 1.87
  71  0.876  0.444  0.942-   1 1.94  15 1.95   5 1.97  17 1.98  35 2.09
  72  0.894  0.789  0.438-  36 1.82  16 1.86  18 1.86   6 1.86
  73  0.888  0.779  0.939-  17 1.82   7 1.87  19 1.88  37 1.93

  LATTYP: Found a hexagonal cell.
 ALAT       =     9.2872017641
 C/A-ratio  =     1.0669595981
  
  Lattice vectors:
  
 A1 = (   9.2872018814,   0.0000000000,   0.0000000000)
 A2 = (  -4.6436029654,   8.0429537929,   0.0000000000)
 A3 = (   0.0000000000,   0.0000000000,   9.9090690613)


Analysis of symmetry for initial positions (statically):
=====================================================================
 Subroutine PRICEL returns:
 Original cell was already a primitive cell.
 

 Routine SETGRP: Setting up the symmetry group for a 
 hexagonal supercell.


 Subroutine GETGRP returns: Found  2 space group operations
 (whereof  2 operations were pure point group operations)
 out of a pool of 24 trial point group operations.


The static configuration has the point symmetry C_1h.


Analysis of symmetry for dynamics (positions and initial velocities):
=====================================================================
 Subroutine PRICEL returns:
 Original cell was already a primitive cell.
 

 Routine SETGRP: Setting up the symmetry group for a 
 hexagonal supercell.


 Subroutine GETGRP returns: Found  2 space group operations
 (whereof  2 operations were pure point group operations)
 out of a pool of 24 trial point group operations.


The dynamic configuration has the point symmetry C_1h.


 Subroutine INISYM returns: Found  2 space group operations
 (whereof  2 operations are pure point group operations),
 and found     1 'primitive' translations



 KPOINTS: 0.030  15  15   7  108  0.040  201    9 
  k-points in reciprocal lattice
Space group operators:
 irot       det(A)        alpha          n_x          n_y          n_z        tau_x        tau_y        tau_z
    1     1.000000     0.000000     1.000000     0.000000     0.000000     0.000000     0.000000     0.000000
    2    -1.000000   180.000000    -0.500000    -0.866025     0.000000     0.000000     0.000000     0.000000

 ----------------------------------------------------------------------------- 
|                                                                             |
|           W    W    AA    RRRRR   N    N  II  N    N   GGGG   !!!           |
|           W    W   A  A   R    R  NN   N  II  NN   N  G    G  !!!           |
|           W    W  A    A  R    R  N N  N  II  N N  N  G       !!!           |
|           W WW W  AAAAAA  RRRRR   N  N N  II  N  N N  G  GGG   !            |
|           WW  WW  A    A  R   R   N   NN  II  N   NN  G    G                |
|           W    W  A    A  R    R  N    N  II  N    N   GGGG   !!!           |
|                                                                             |
|      Your generating k-point grid is not commensurate to the symmetry       |
|      of the lattice.  This can cause   slow convergence with respect        |
|      to k-points for HF type calculations                                   |
|      suggested SOLUTIONS:                                                   |
|       ) if not already the case, use automatic k-point generation           |
|       ) shift your grid to Gamma (G) (e.g. required for hex or fcc lattice) |
|                                                                             |
 ----------------------------------------------------------------------------- 

 
 Subroutine IBZKPT_HF returns following result:
 ==============================================
 
 Found     86 k-points in 1st BZ
 the following     86 k-points will be used (e.g. in the exchange kernel)
 Following reciprocal coordinates:   # in IRBZ
  0.000000  0.000000  0.000000    0.12500000   1 t-inv F
  0.500000  0.000000  0.000000    0.12500000   2 t-inv F
  0.500000  0.500000  0.000000    0.12500000   3 t-inv F
  0.000000  0.000000  0.500000    0.12500000   4 t-inv F
  0.500000  0.000000  0.500000    0.12500000   5 t-inv F
  0.500000  0.500000  0.500000    0.12500000   6 t-inv F
  0.000000  0.000000  0.000000    0.00000000   7 t-inv F
  0.017857  0.000000  0.000000    0.00000000   8 t-inv F
  0.035714  0.000000  0.000000    0.00000000   9 t-inv F
  0.053571  0.000000  0.000000    0.00000000  10 t-inv F
  0.071429  0.000000  0.000000    0.00000000  11 t-inv F
  0.089286  0.000000  0.000000    0.00000000  12 t-inv F
  0.107143  0.000000  0.000000    0.00000000  13 t-inv F
  0.125000  0.000000  0.000000    0.00000000  14 t-inv F
  0.142857  0.000000  0.000000    0.00000000  15 t-inv F
  0.160714  0.000000  0.000000    0.00000000  16 t-inv F
  0.178571  0.000000  0.000000    0.00000000  17 t-inv F
  0.196429  0.000000  0.000000    0.00000000  18 t-inv F
  0.214286  0.000000  0.000000    0.00000000  19 t-inv F
  0.232143  0.000000  0.000000    0.00000000  20 t-inv F
  0.250000  0.000000  0.000000    0.00000000  21 t-inv F
  0.267857  0.000000  0.000000    0.00000000  22 t-inv F
  0.285714  0.000000  0.000000    0.00000000  23 t-inv F
  0.303571  0.000000  0.000000    0.00000000  24 t-inv F
  0.321429  0.000000  0.000000    0.00000000  25 t-inv F
  0.339286  0.000000  0.000000    0.00000000  26 t-inv F
  0.357143  0.000000  0.000000    0.00000000  27 t-inv F
  0.375000  0.000000  0.000000    0.00000000  28 t-inv F
  0.392857  0.000000  0.000000    0.00000000  29 t-inv F
  0.410714  0.000000  0.000000    0.00000000  30 t-inv F
  0.428571  0.000000  0.000000    0.00000000  31 t-inv F
  0.446429  0.000000  0.000000    0.00000000  32 t-inv F
  0.464286  0.000000  0.000000    0.00000000  33 t-inv F
  0.482143  0.000000  0.000000    0.00000000  34 t-inv F
  0.500000  0.000000  0.000000    0.00000000  35 t-inv F
  0.500000  0.000000  0.000000    0.00000000  36 t-inv F
  0.488889  0.022222  0.000000    0.00000000  37 t-inv F
  0.477778  0.044444  0.000000    0.00000000  38 t-inv F
  0.466667  0.066667  0.000000    0.00000000  39 t-inv F
  0.455556  0.088889  0.000000    0.00000000  40 t-inv F
  0.444444  0.111111  0.000000    0.00000000  41 t-inv F
  0.433333  0.133333  0.000000    0.00000000  42 t-inv F
  0.422222  0.155556  0.000000    0.00000000  43 t-inv F
  0.411111  0.177778  0.000000    0.00000000  44 t-inv F
  0.400000  0.200000  0.000000    0.00000000  45 t-inv F
  0.388889  0.222222  0.000000    0.00000000  46 t-inv F
  0.377778  0.244444  0.000000    0.00000000  47 t-inv F
  0.366667  0.266667  0.000000    0.00000000  48 t-inv F
  0.355556  0.288889  0.000000    0.00000000  49 t-inv F
  0.344444  0.311111  0.000000    0.00000000  50 t-inv F
  0.333333  0.333333  0.000000    0.00000000  51 t-inv F
  0.333333  0.333333  0.000000    0.00000000  52 t-inv F
  0.322917  0.322917  0.000000    0.00000000  53 t-inv F
  0.312500  0.312500  0.000000    0.00000000  54 t-inv F
  0.302083  0.302083  0.000000    0.00000000  55 t-inv F
  0.291667  0.291667  0.000000    0.00000000  56 t-inv F
  0.281250  0.281250  0.000000    0.00000000  57 t-inv F
  0.270833  0.270833  0.000000    0.00000000  58 t-inv F
  0.260417  0.260417  0.000000    0.00000000  59 t-inv F
  0.250000  0.250000  0.000000    0.00000000  60 t-inv F
  0.239583  0.239583  0.000000    0.00000000  61 t-inv F
  0.229167  0.229167  0.000000    0.00000000  62 t-inv F
  0.218750  0.218750  0.000000    0.00000000  63 t-inv F
  0.208333  0.208333  0.000000    0.00000000  64 t-inv F
  0.197917  0.197917  0.000000    0.00000000  65 t-inv F
  0.187500  0.187500  0.000000    0.00000000  66 t-inv F
  0.177083  0.177083  0.000000    0.00000000  67 t-inv F
  0.166667  0.166667  0.000000    0.00000000  68 t-inv F
  0.156250  0.156250  0.000000    0.00000000  69 t-inv F
  0.145833  0.145833  0.000000    0.00000000  70 t-inv F
  0.135417  0.135417  0.000000    0.00000000  71 t-inv F
  0.125000  0.125000  0.000000    0.00000000  72 t-inv F
  0.114583  0.114583  0.000000    0.00000000  73 t-inv F
  0.104167  0.104167  0.000000    0.00000000  74 t-inv F
  0.093750  0.093750  0.000000    0.00000000  75 t-inv F
  0.083333  0.083333  0.000000    0.00000000  76 t-inv F
  0.072917  0.072917  0.000000    0.00000000  77 t-inv F
  0.062500  0.062500  0.000000    0.00000000  78 t-inv F
  0.052083  0.052083  0.000000    0.00000000  79 t-inv F
  0.041667  0.041667  0.000000    0.00000000  80 t-inv F
  0.031250  0.031250  0.000000    0.00000000  81 t-inv F
  0.020833  0.020833  0.000000    0.00000000  82 t-inv F
  0.010417  0.010417  0.000000    0.00000000  83 t-inv F
  0.000000  0.000000  0.000000    0.00000000  84 t-inv F
  0.000000 -0.500000  0.000000    0.12500000   2 t-inv F
  0.000000 -0.500000  0.500000    0.12500000   5 t-inv F


--------------------------------------------------------------------------------------------------------




 Dimension of arrays:
   k-points           NKPTS =     84   k-points in BZ     NKDIM =     86   number of bands    NBANDS=    192
   number of dos      NEDOS =    301   number of ions     NIONS =     73
   non local maximal  LDIM  =      4   non local SUM 2l+1 LMDIM =      8
   total plane-waves  NPLWV = 157464
   max r-space proj   IRMAX =   1883   max aug-charges    IRDMAX=   8478
   dimension x,y,z NGX =    54 NGY =   54 NGZ =   54
   dimension x,y,z NGXF=   108 NGYF=  108 NGZF=  108
   support grid    NGXF=   108 NGYF=  108 NGZF=  108
   ions per type =              37  36
 NGX,Y,Z   is equivalent  to a cutoff of   9.67,  9.67,  9.06 a.u.
 NGXF,Y,Z  is equivalent  to a cutoff of  19.33, 19.33, 18.12 a.u.


 I would recommend the setting:
   dimension x,y,z NGX =    51 NGY =   51 NGZ =   54
 SYSTEM =  unknown system                          
 POSCAR =  Al2 N2                                  

 Startparameter for this run:
   NWRITE =      2    write-flag & timer
   PREC   = normal    normal or accurate (medium, high low for compatibility)
   ISTART =      1    job   : 0-new  1-cont  2-samecut
   ICHARG =      0    charge: 1-file 2-atom 10-const
   ISPIN  =      1    spin polarized calculation?
   LNONCOLLINEAR =      F non collinear calculations
   LSORBIT =      F    spin-orbit coupling
   INIWAV =      1    electr: 0-lowe 1-rand  2-diag
   LASPH  =      F    aspherical Exc in radial PAW
   METAGGA=      F    non-selfconsistent MetaGGA calc.

 Electronic Relaxation 1
   ENCUT  =  500.0 eV  36.75 Ry    6.06 a.u.  16.93 16.93 18.07*2*pi/ulx,y,z
   ENINI  =  500.0     initial cutoff
   ENAUG  =  627.1 eV  augmentation charge cutoff
   NELM   =    300;   NELMIN=  8; NELMDL=  0     # of ELM steps 
   EDIFF  = 0.1E-04   stopping-criterion for ELM
   LREAL  =      T    real-space projection
   NLSPLINE    = F    spline interpolate recip. space projectors
   LCOMPAT=      F    compatible to vasp.4.4
   GGA_COMPAT  = T    GGA compatible to vasp.4.4-vasp.4.6
   LMAXPAW     = -100 max onsite density
   LMAXMIX     =    2 max onsite mixed and CHGCAR
   VOSKOWN=      0    Vosko Wilk Nusair interpolation
   ROPT   =   -0.00050  -0.00050
 Ionic relaxation
   EDIFFG = -.2E-01   stopping-criterion for IOM
   NSW    =      0    number of steps for IOM
   NBLOCK =      1;   KBLOCK =      1    inner block; outer block 
   IBRION =     -1    ionic relax: 0-MD 1-quasi-New 2-CG
   NFREE  =      0    steps in history (QN), initial steepest desc. (CG)
   ISIF   =      2    stress and relaxation
   IWAVPR =     10    prediction:  0-non 1-charg 2-wave 3-comb
   ISYM   =      3    0-nonsym 1-usesym 2-fastsym
   LCORR  =      T    Harris-Foulkes like correction to forces

   POTIM  = 0.0200    time-step for ionic-motion
   TEIN   =    0.0    initial temperature
   TEBEG  =    0.0;   TEEND  =   0.0 temperature during run
   SMASS  =  -3.00    Nose mass-parameter (am)
   estimated Nose-frequenzy (Omega)   =  0.10E-29 period in steps =****** mass=  -0.197E-26a.u.
   SCALEE = 1.0000    scale energy and forces
   NPACO  =    256;   APACO  = 16.0  distance and # of slots for P.C.
   PSTRESS=    0.0 pullay stress

  Mass of Ions in am
   POMASS =  26.98 14.00
  Ionic Valenz
   ZVAL   =   3.00  5.00
  Atomic Wigner-Seitz radii
   RWIGS  =  -1.00 -1.00
  virtual crystal weights 
   VCA    =   1.00  1.00
   NELECT =     290.0000    total number of electrons
   NUPDOWN=      -1.0000    fix difference up-down

 DOS related values:
   EMIN   =  10.00;   EMAX   =-10.00  energy-range for DOS
   EFERMI =   0.00
   ISMEAR =     0;   SIGMA  =   0.02  broadening in eV -4-tet -1-fermi 0-gaus

 Electronic relaxation 2 (details)
   IALGO  =     38    algorithm
   LDIAG  =      T    sub-space diagonalisation (order eigenvalues)
   LSUBROT=      F    optimize rotation matrix (better conditioning)
   TURBO    =      0    0=normal 1=particle mesh
   IRESTART =      0    0=no restart 2=restart with 2 vectors
   NREBOOT  =      0    no. of reboots
   NMIN     =      0    reboot dimension
   EREF     =   0.00    reference energy to select bands
   IMIX   =      1    mixing-type and parameters
     AMIX     =   0.40;   BMIX     =  1.00
     AMIX_MAG =   1.60;   BMIX_MAG =  1.00
     AMIN     =   0.10
     WC   =   100.;   INIMIX=   1;  MIXPRE=   1;  MAXMIX= -45

 Intra band minimization:
   WEIMIN = 0.0000     energy-eigenvalue tresh-hold
   EBREAK =  0.13E-07  absolut break condition
   DEPER  =   0.30     relativ break condition  

   TIME   =   0.40     timestep for ELM

  volume/ion in A,a.u.               =      10.14        68.42
  Fermi-wavevector in a.u.,A,eV,Ry     =   1.197925  2.263751 19.524700  1.435025
  Thomas-Fermi vector in A             =   2.333828

 Write flags
   LWAVE  =      F    write WAVECAR
   LCHARG =      F    write CHGCAR
   LVTOT  =      F    write LOCPOT, total local potential
   LVHAR  =      F    write LOCPOT, Hartree potential only
   LELF   =      F    write electronic localiz. function (ELF)
   LORBIT =     11    0 simple, 1 ext, 2 COOP (PROOUT)


 Dipole corrections
   LMONO  =      F    monopole corrections only (constant potential shift)
   LDIPOL =      F    correct potential (dipole corrections)
   IDIPOL =      0    1-x, 2-y, 3-z, 4-all directions 
   EPSILON=  1.0000000 bulk dielectric constant

 Exchange correlation treatment:
   GGA     =    --    GGA type
   LEXCH   =     8    internal setting for exchange type
   VOSKOWN=      0    Vosko Wilk Nusair interpolation
   EXXOEP  =     0    0=HF, 1=EXX-LHF (local Hartree Fock) 2=EXX OEP
   LHFCALC =     T    Hartree Fock is set to
   LSYMGRAD=     F    symmetrize gradient (conserves proper symmetry)
   PRECFOCK=fast      Normal, Fast or Accurate (Low or Medium for compatibility)
   LRHFCALC=     F    long range Hartree Fock
   LRSCOR  =     F    long range correlation only (use DFT for short range part)
   LTHOMAS =     F    Thomas Fermi screening in HF
   LMODELHF=     F    short range full HF, long range fraction AEXX
   ENCUT4O =  -1.0   cutoff for four orbital integrals eV
   LMAXFOCK=     4    L truncation for augmentation on plane wave grid
   LMAXFOCKAE=  -1    L truncation for all-electron charge restoration on plane wave grid
   NMAXFOCKAE=   1    number of basis functions for all-electron charge restoration
   LFOCKAEDFT=     F  apply the AE augmentation even for DFT
   NKREDX  =     1    reduce k-point grid by
   NKREDY  =     1    reduce k-point grid by
   NKREDZ  =     1    reduce k-point grid by
   SHIFTRED=     F    shift reduced grid of Gamma
   HFKIDENT=     F    idential grid for each k-point
   ODDONLY =     F    use only odd q-grid points
   EVENONLY=     F    use only even q-grid points
   HFALPHA =   -1.0000 decay constant for conv. correction
   MCALPHA =    0.0000 extent of test-charge in conv. correction in multipole expansion
   AEXX    =    0.3300 exact exchange contribution
   HFSCREEN=    0.2000 screening length (either q_TF or 0.3 A-1)
   HFSCREENC=   0.2000 screening length for correlation (either q_TF or 0.3 A-1)
   HFRCUT  =    0.0000 spherical cutoff for potential kernel
   ALDAX   =    0.6700 LDA exchange part
   AGGAX   =    0.6700 GGA exchange part
   ALDAC   =    1.0000 LDA correlation
   AGGAC   =    1.0000 GGA correlation
   NBANDSGWLOW=     1    first orbital included in HF term
   ENCUTFOCK=  -1.0 apply spherical cutoff to Coloumb kernel
 Linear response parameters
   LEPSILON=     F    determine dielectric tensor
   LRPA    =     F    only Hartree local field effects (RPA)
   LNABLA  =     F    use nabla operator in PAW spheres
   LVEL    =     F    velocity operator in full k-point grid
   LINTERFAST=   F  fast interpolation
   KINTER  =     0    interpolate to denser k-point grid
   CSHIFT  =0.1000    complex shift for real part using Kramers Kronig
   OMEGAMAX=  -1.0    maximum frequency
   DEG_THRESHOLD= 0.2000000E-02 threshold for treating states as degnerate
   RTIME   =    0.100 relaxation time in fs

 Orbital magnetization related:
   ORBITALMAG=     F  switch on orbital magnetization
   LCHIMAG   =     F  perturbation theory with respect to B field
   DQ        =  0.001000  dq finite difference perturbation B field



--------------------------------------------------------------------------------------------------------


 Static calculation
 charge density and potential will be updated during run
 non-spin polarized calculation
 Variant of blocked Davidson
 Davidson routine will perform the subspace rotation
 perform sub-space diagonalisation
    after iterative eigenvector-optimisation
 Kerker-like  mixing scheme
 using additional bands           47
 real space projection scheme for non local part
 use partial core corrections
 calculate Harris-corrections to forces   (improved forces if not selfconsistent)
 use gradient corrections 
 use of overlap-Matrix (Vanderbilt PP)
 Gauss-broadening in eV      SIGMA  =   0.02


--------------------------------------------------------------------------------------------------------


  energy-cutoff  :      500.00
  volume of cell :      740.17
      direct lattice vectors                 reciprocal lattice vectors
     9.287201881  0.000000000  0.000000000     0.107675058  0.062166243 -0.000000000
    -4.643602965  8.042953793  0.000000000     0.000000000  0.124332431  0.000000000
     0.000000000  0.000000000  9.909069061     0.000000000 -0.000000000  0.100917654

  length of vectors
     9.287201881  9.287203789  9.909069061     0.124332457  0.124332431  0.100917654



 old parameters found on file WAVECAR:
  energy-cutoff  :      500.00
  volume of cell :      740.17
      direct lattice vectors                 reciprocal lattice vectors
     9.287201881  0.000000000  0.000000000     0.107675058  0.062166243 -0.000000000
    -4.643602965  8.042953793  0.000000000     0.000000000  0.124332431  0.000000000
     0.000000000  0.000000000  9.909069061     0.000000000 -0.000000000  0.100917654

  length of vectors


 k-points in units of 2pi/SCALE and weight: 0.030  15  15   7  108  0.040  201    9 
   0.00000000  0.00000000  0.00000000       0.125
   0.05383753  0.03108312  0.00000000       0.250
   0.05383753  0.09324934  0.00000000       0.125
   0.00000000  0.00000000  0.05045883       0.125
   0.05383753  0.03108312  0.05045883       0.250
   0.05383753  0.09324934  0.05045883       0.125
   0.00000000  0.00000000  0.00000000       0.000
   0.00192277  0.00111011  0.00000000       0.000
   0.00384554  0.00222022  0.00000000       0.000
   0.00576831  0.00333033  0.00000000       0.000
   0.00769108  0.00444045  0.00000000       0.000
   0.00961384  0.00555056  0.00000000       0.000
   0.01153661  0.00666067  0.00000000       0.000
   0.01345938  0.00777078  0.00000000       0.000
   0.01538215  0.00888089  0.00000000       0.000
   0.01730492  0.00999100  0.00000000       0.000
   0.01922769  0.01110111  0.00000000       0.000
   0.02115046  0.01221123  0.00000000       0.000
   0.02307323  0.01332134  0.00000000       0.000
   0.02499600  0.01443145  0.00000000       0.000
   0.02691876  0.01554156  0.00000000       0.000
   0.02884153  0.01665167  0.00000000       0.000
   0.03076430  0.01776178  0.00000000       0.000
   0.03268707  0.01887190  0.00000000       0.000
   0.03460984  0.01998201  0.00000000       0.000
   0.03653261  0.02109212  0.00000000       0.000
   0.03845538  0.02220223  0.00000000       0.000
   0.04037815  0.02331234  0.00000000       0.000
   0.04230092  0.02442245  0.00000000       0.000
   0.04422368  0.02553256  0.00000000       0.000
   0.04614645  0.02664268  0.00000000       0.000
   0.04806922  0.02775279  0.00000000       0.000
   0.04999199  0.02886290  0.00000000       0.000
   0.05191476  0.02997301  0.00000000       0.000
   0.05383753  0.03108312  0.00000000       0.000
   0.05383753  0.03108312  0.00000000       0.000
   0.05264114  0.03315533  0.00000000       0.000
   0.05144475  0.03522754  0.00000000       0.000
   0.05024836  0.03729974  0.00000000       0.000
   0.04905197  0.03937195  0.00000000       0.000
   0.04785558  0.04144416  0.00000000       0.000
   0.04665919  0.04351636  0.00000000       0.000
   0.04546280  0.04558857  0.00000000       0.000
   0.04426641  0.04766078  0.00000000       0.000
   0.04307002  0.04973298  0.00000000       0.000
   0.04187363  0.05180519  0.00000000       0.000
   0.04067724  0.05387740  0.00000000       0.000
   0.03948085  0.05594960  0.00000000       0.000
   0.03828447  0.05802181  0.00000000       0.000
   0.03708808  0.06009402  0.00000000       0.000
   0.03589169  0.06216622  0.00000000       0.000
   0.03589169  0.06216622  0.00000000       0.000
   0.03477007  0.06022353  0.00000000       0.000
   0.03364846  0.05828084  0.00000000       0.000
   0.03252684  0.05633814  0.00000000       0.000
   0.03140523  0.05439545  0.00000000       0.000
   0.03028361  0.05245275  0.00000000       0.000
   0.02916199  0.05051006  0.00000000       0.000
   0.02804038  0.04856736  0.00000000       0.000
   0.02691876  0.04662467  0.00000000       0.000
   0.02579715  0.04468197  0.00000000       0.000
   0.02467553  0.04273928  0.00000000       0.000
   0.02355392  0.04079658  0.00000000       0.000
   0.02243230  0.03885389  0.00000000       0.000
   0.02131069  0.03691120  0.00000000       0.000
   0.02018907  0.03496850  0.00000000       0.000
   0.01906746  0.03302581  0.00000000       0.000
   0.01794584  0.03108311  0.00000000       0.000
   0.01682423  0.02914042  0.00000000       0.000
   0.01570261  0.02719772  0.00000000       0.000
   0.01458100  0.02525503  0.00000000       0.000
   0.01345938  0.02331233  0.00000000       0.000
   0.01233777  0.02136964  0.00000000       0.000
   0.01121615  0.01942695  0.00000000       0.000
   0.01009454  0.01748425  0.00000000       0.000
   0.00897292  0.01554156  0.00000000       0.000
   0.00785131  0.01359886  0.00000000       0.000
   0.00672969  0.01165617  0.00000000       0.000
   0.00560808  0.00971347  0.00000000       0.000
   0.00448646  0.00777078  0.00000000       0.000
   0.00336485  0.00582808  0.00000000       0.000
   0.00224323  0.00388539  0.00000000       0.000
   0.00112162  0.00194269  0.00000000       0.000
   0.00000000  0.00000000  0.00000000       0.000

 k-points in reciprocal lattice and weights: 0.030  15  15   7  108  0.040  201    9 
   0.00000000  0.00000000  0.00000000       0.125
   0.50000000  0.00000000  0.00000000       0.250
   0.50000000  0.50000000  0.00000000       0.125
   0.00000000  0.00000000  0.50000000       0.125
   0.50000000  0.00000000  0.50000000       0.250
   0.50000000  0.50000000  0.50000000       0.125
   0.00000000  0.00000000  0.00000000       0.000
   0.01785714  0.00000000  0.00000000       0.000
   0.03571429  0.00000000  0.00000000       0.000
   0.05357143  0.00000000  0.00000000       0.000
   0.07142857  0.00000000  0.00000000       0.000
   0.08928571  0.00000000  0.00000000       0.000
   0.10714286  0.00000000  0.00000000       0.000
   0.12500000  0.00000000  0.00000000       0.000
   0.14285714  0.00000000  0.00000000       0.000
   0.16071429  0.00000000  0.00000000       0.000
   0.17857143  0.00000000  0.00000000       0.000
   0.19642857  0.00000000  0.00000000       0.000
   0.21428571  0.00000000  0.00000000       0.000
   0.23214286  0.00000000  0.00000000       0.000
   0.25000000  0.00000000  0.00000000       0.000
   0.26785714  0.00000000  0.00000000       0.000
   0.28571429  0.00000000  0.00000000       0.000
   0.30357143  0.00000000  0.00000000       0.000
   0.32142857  0.00000000  0.00000000       0.000
   0.33928571  0.00000000  0.00000000       0.000
   0.35714286  0.00000000  0.00000000       0.000
   0.37500000  0.00000000  0.00000000       0.000
   0.39285714  0.00000000  0.00000000       0.000
   0.41071429  0.00000000  0.00000000       0.000
   0.42857143  0.00000000  0.00000000       0.000
   0.44642857  0.00000000  0.00000000       0.000
   0.46428571  0.00000000  0.00000000       0.000
   0.48214286  0.00000000  0.00000000       0.000
   0.50000000  0.00000000  0.00000000       0.000
   0.50000000  0.00000000  0.00000000       0.000
   0.48888889  0.02222222  0.00000000       0.000
   0.47777778  0.04444444  0.00000000       0.000
   0.46666667  0.06666667  0.00000000       0.000
   0.45555556  0.08888889  0.00000000       0.000
   0.44444444  0.11111111  0.00000000       0.000
   0.43333333  0.13333333  0.00000000       0.000
   0.42222222  0.15555556  0.00000000       0.000
   0.41111111  0.17777778  0.00000000       0.000
   0.40000000  0.20000000  0.00000000       0.000
   0.38888889  0.22222222  0.00000000       0.000
   0.37777778  0.24444444  0.00000000       0.000
   0.36666667  0.26666667  0.00000000       0.000
   0.35555556  0.28888889  0.00000000       0.000
   0.34444444  0.31111111  0.00000000       0.000
   0.33333333  0.33333333  0.00000000       0.000
   0.33333333  0.33333333  0.00000000       0.000
   0.32291667  0.32291667  0.00000000       0.000
   0.31250000  0.31250000  0.00000000       0.000
   0.30208333  0.30208333  0.00000000       0.000
   0.29166667  0.29166667  0.00000000       0.000
   0.28125000  0.28125000  0.00000000       0.000
   0.27083333  0.27083333  0.00000000       0.000
   0.26041667  0.26041667  0.00000000       0.000
   0.25000000  0.25000000  0.00000000       0.000
   0.23958333  0.23958333  0.00000000       0.000
   0.22916667  0.22916667  0.00000000       0.000
   0.21875000  0.21875000  0.00000000       0.000
   0.20833333  0.20833333  0.00000000       0.000
   0.19791667  0.19791667  0.00000000       0.000
   0.18750000  0.18750000  0.00000000       0.000
   0.17708333  0.17708333  0.00000000       0.000
   0.16666667  0.16666667  0.00000000       0.000
   0.15625000  0.15625000  0.00000000       0.000
   0.14583333  0.14583333  0.00000000       0.000
   0.13541667  0.13541667  0.00000000       0.000
   0.12500000  0.12500000  0.00000000       0.000
   0.11458333  0.11458333  0.00000000       0.000
   0.10416667  0.10416667  0.00000000       0.000
   0.09375000  0.09375000  0.00000000       0.000
   0.08333333  0.08333333  0.00000000       0.000
   0.07291667  0.07291667  0.00000000       0.000
   0.06250000  0.06250000  0.00000000       0.000
   0.05208333  0.05208333  0.00000000       0.000
   0.04166667  0.04166667  0.00000000       0.000
   0.03125000  0.03125000  0.00000000       0.000
   0.02083333  0.02083333  0.00000000       0.000
   0.01041667  0.01041667  0.00000000       0.000
   0.00000000  0.00000000  0.00000000       0.000

 position of ions in fractional coordinates (direct lattice) 
   0.64656650  0.35343684  0.88425472
   0.10955075  0.22177756  0.50035884
   0.11033024  0.22302150  0.99726820
   0.11442469  0.55635854  0.49925833
   0.11179643  0.55588949  0.99623642
   0.11096526  0.88903475  0.50219365
   0.11067881  0.88932120  0.99530804
   0.43627553  0.21179561  0.47780113
   0.41869053  0.20551403  0.02962941
   0.44392581  0.55607416  0.49227677
   0.44429240  0.55570757  0.00639816
   0.44364143  0.88557532  0.49925833
   0.44411048  0.88820358  0.99623642
   0.77907425  0.22092575  0.49654327
   0.78336300  0.21663700  0.00703495
   0.78820439  0.56372444  0.47780113
   0.79448597  0.58130944  0.02962941
   0.77822244  0.89044926  0.50035884
   0.77697850  0.88966977  0.99726820
   0.21023153  0.10485679  0.25360089
   0.22258141  0.11086728  0.74443195
   0.22036336  0.44419836  0.24986939
   0.22768688  0.44339094  0.74743794
   0.22194478  0.77805522  0.24697118
   0.22263763  0.77736237  0.74760457
   0.55641940  0.10508797  0.25278877
   0.55046985  0.10964514  0.73090926
   0.55504685  0.44495312  0.24076977
   0.56586409  0.43413588  0.68831381
   0.55580161  0.77963664  0.24986939
   0.55660903  0.77231312  0.74743794
   0.88951505  0.11048496  0.25070959
   0.88868415  0.11131586  0.74701409
   0.89491204  0.44358057  0.25278877
   0.89035487  0.44953012  0.73090926
   0.89514322  0.78976847  0.25360089
   0.88913272  0.77741859  0.74443195
   0.10988539  0.22258371  0.18755871
   0.11032850  0.22169435  0.69093170
   0.11109805  0.55546281  0.18612265
   0.11586217  0.55518128  0.69058574
   0.11110287  0.88889713  0.18524319
   0.11173071  0.88826930  0.69256132
   0.43571793  0.21047096  0.21214639
   0.42696265  0.20160608  0.66298006
   0.44105676  0.55894321  0.19684424
   0.44859909  0.55140089  0.68502276
   0.44453716  0.88890195  0.18612265
   0.44481869  0.88413784  0.69058574
   0.77798954  0.22201046  0.19222906
   0.77872990  0.22127010  0.68655821
   0.78952904  0.56428204  0.21214639
   0.79839392  0.57303732  0.66298006
   0.77741629  0.89011462  0.18755871
   0.77830565  0.88967151  0.69093170
   0.21111269  0.10602875  0.43769481
   0.22118392  0.11181758  0.93912054
   0.22111354  0.44295926  0.43954782
   0.22411371  0.44499775  0.93920683
   0.22197997  0.77802003  0.43863116
   0.22189205  0.77810795  0.93854518
   0.55807983  0.10574184  0.43936405
   0.55605691  0.12419317  0.94172775
   0.55673069  0.44326928  0.44054682
   0.56131831  0.43868166  0.00730449
   0.55704071  0.77888646  0.43954782
   0.55500222  0.77588629  0.93920683
   0.88909661  0.11090339  0.43944744
   0.88868976  0.11131025  0.93850567
   0.89425817  0.44192014  0.43936405
   0.87580684  0.44394306  0.94172775
   0.89397126  0.78888731  0.43769481
   0.88818243  0.77881608  0.93912054

 position of ions in cartesian coordinates  (Angst):
   4.36357323  2.84267615  8.76214106
  -0.01242703  1.78374667  4.95809031
  -0.01096410  1.79375165  9.88199949
  -1.52082301  4.47476604  4.94718523
  -1.54305410  4.47099346  9.87177547
  -3.09776764  7.15046541  4.97627157
  -3.10175816  7.15276933  9.86257607
   3.06828422  1.70346229  4.73456437
   2.93413792  1.65293987  0.29359990
   1.54064105  4.47247875  4.87800452
   1.54574789  4.46953031  0.06339985
   0.00792733  7.12264139  4.94718523
   0.00007893  7.14378037  9.87177547
   6.20952833  1.77689563  4.92028159
   6.26927415  1.74240136  0.06970979
   4.70250083  4.53400963  4.73456437
   4.67918133  4.67544496  0.29359990
   3.09261608  7.16184226  4.95809031
   3.08468298  7.15557283  9.88199949
   1.46554932  0.84335832  2.51294877
   1.55233481  0.89170045  7.37662762
  -0.01612182  3.57266692  2.47597308
   0.05564255  3.56617286  7.40641414
  -1.55173352  6.25786217  2.44725452
  -1.54208162  6.25228964  7.40806530
   4.67959249  0.84521767  2.50490139
   4.60317612  0.88187076  7.24263029
   3.08864650  3.57873740  2.38580431
   3.23933940  3.49173482  6.82054912
   1.54151872  6.27058146  2.47597308
   1.58302494  6.21167872  7.40641414
   7.74805751  0.88862545  2.48429861
   7.73648245  0.89530831  7.40221423
   6.25141672  3.56769804  2.50490139
   6.18146603  3.61555001  7.24263029
   4.64600455  6.35207135  2.51294877
   4.64753182  6.25274183  7.37662762
  -0.01306254  1.79023046  1.85853226
  -0.00481749  1.78307743  6.84648996
  -1.54755869  4.46756171  1.84430219
  -1.50200612  4.46529738  6.84306181
  -3.09585055  7.14935857  1.83558759
  -3.08710432  7.14430894  6.86263794
   3.06925679  1.69280824  2.10217322
   3.02910968  1.62150842  6.56951519
   1.50067280  4.49555443  1.95054320
   1.60574348  4.43489185  6.78793787
   0.00079862  7.14939734  1.84430219
   0.02553587  7.11107981  6.84306181
   6.19441748  1.78561988  1.90481107
   6.20473130  1.77966519  6.80315273
   4.71221379  4.53849438  2.10217322
   4.75388765  4.60891272  6.56951519
   3.08668320  7.15915072  1.85853226
   3.09700043  7.15558682  6.84648996
   1.46829072  0.85278432  4.33714809
   1.53494328  0.89934359  9.30581027
  -0.00340091  3.56270090  4.35550969
   0.01499637  3.57909635  9.30666531
  -1.55124336  6.25757917  4.34642643
  -1.55246811  6.25828628  9.30010897
   4.69197694  0.85047674  4.35368868
   4.58750903  0.99887992  9.33164533
   3.11210374  3.56519436  4.36540889
   3.17601295  3.52829636  0.07238065
   1.55651000  6.26454785  4.35550969
   1.55150977  6.24041759  9.30666531
   7.74222842  0.89199087  4.35451503
   7.73656056  0.89526321  9.29971752
   6.25305447  3.55434326  4.35368868
   6.07229962  3.57061352  9.33164533
   4.63921209  6.34498422  4.33714809
   4.63221689  6.26398176  9.30581027



--------------------------------------------------------------------------------------------------------


 k-point  1 :   0.0000 0.0000 0.0000  plane waves:   18757
 k-point  2 :   0.5000 0.0000 0.0000  plane waves:   18798
 k-point  3 :   0.5000 0.5000 0.0000  plane waves:   18798
 k-point  4 :   0.0000 0.0000 0.5000  plane waves:   18732
 k-point  5 :   0.5000 0.0000 0.5000  plane waves:   18816
 k-point  6 :   0.5000 0.5000 0.5000  plane waves:   18816
 k-point  7 :   0.0000 0.0000 0.0000  plane waves:   18757
 k-point  8 :   0.0179 0.0000 0.0000  plane waves:   18773
 k-point  9 :   0.0357 0.0000 0.0000  plane waves:   18781
 k-point 10 :   0.0536 0.0000 0.0000  plane waves:   18781
 k-point 11 :   0.0714 0.0000 0.0000  plane waves:   18775
 k-point 12 :   0.0893 0.0000 0.0000  plane waves:   18783
 k-point 13 :   0.1071 0.0000 0.0000  plane waves:   18771
 k-point 14 :   0.1250 0.0000 0.0000  plane waves:   18771
 k-point 15 :   0.1429 0.0000 0.0000  plane waves:   18761
 k-point 16 :   0.1607 0.0000 0.0000  plane waves:   18757
 k-point 17 :   0.1786 0.0000 0.0000  plane waves:   18767
 k-point 18 :   0.1964 0.0000 0.0000  plane waves:   18767
 k-point 19 :   0.2143 0.0000 0.0000  plane waves:   18763
 k-point 20 :   0.2321 0.0000 0.0000  plane waves:   18755
 k-point 21 :   0.2500 0.0000 0.0000  plane waves:   18755
 k-point 22 :   0.2679 0.0000 0.0000  plane waves:   18741
 k-point 23 :   0.2857 0.0000 0.0000  plane waves:   18769
 k-point 24 :   0.3036 0.0000 0.0000  plane waves:   18755
 k-point 25 :   0.3214 0.0000 0.0000  plane waves:   18759
 k-point 26 :   0.3393 0.0000 0.0000  plane waves:   18760
 k-point 27 :   0.3571 0.0000 0.0000  plane waves:   18764
 k-point 28 :   0.3750 0.0000 0.0000  plane waves:   18784
 k-point 29 :   0.3929 0.0000 0.0000  plane waves:   18780
 k-point 30 :   0.4107 0.0000 0.0000  plane waves:   18768
 k-point 31 :   0.4286 0.0000 0.0000  plane waves:   18770
 k-point 32 :   0.4464 0.0000 0.0000  plane waves:   18788
 k-point 33 :   0.4643 0.0000 0.0000  plane waves:   18786
 k-point 34 :   0.4821 0.0000 0.0000  plane waves:   18792
 k-point 35 :   0.5000 0.0000 0.0000  plane waves:   18798
 k-point 36 :   0.5000 0.0000 0.0000  plane waves:   18798
 k-point 37 :   0.4889 0.0222 0.0000  plane waves:   18794
 k-point 38 :   0.4778 0.0444 0.0000  plane waves:   18780
 k-point 39 :   0.4667 0.0667 0.0000  plane waves:   18788
 k-point 40 :   0.4556 0.0889 0.0000  plane waves:   18769
 k-point 41 :   0.4444 0.1111 0.0000  plane waves:   18785
 k-point 42 :   0.4333 0.1333 0.0000  plane waves:   18801
 k-point 43 :   0.4222 0.1556 0.0000  plane waves:   18813
 k-point 44 :   0.4111 0.1778 0.0000  plane waves:   18831
 k-point 45 :   0.4000 0.2000 0.0000  plane waves:   18821
 k-point 46 :   0.3889 0.2222 0.0000  plane waves:   18831
 k-point 47 :   0.3778 0.2444 0.0000  plane waves:   18833
 k-point 48 :   0.3667 0.2667 0.0000  plane waves:   18821
 k-point 49 :   0.3556 0.2889 0.0000  plane waves:   18813
 k-point 50 :   0.3444 0.3111 0.0000  plane waves:   18823
 k-point 51 :   0.3333 0.3333 0.0000  plane waves:   18837
 k-point 52 :   0.3333 0.3333 0.0000  plane waves:   18837
 k-point 53 :   0.3229 0.3229 0.0000  plane waves:   18815
 k-point 54 :   0.3125 0.3125 0.0000  plane waves:   18817
 k-point 55 :   0.3021 0.3021 0.0000  plane waves:   18813
 k-point 56 :   0.2917 0.2917 0.0000  plane waves:   18813
 k-point 57 :   0.2812 0.2812 0.0000  plane waves:   18801
 k-point 58 :   0.2708 0.2708 0.0000  plane waves:   18797
 k-point 59 :   0.2604 0.2604 0.0000  plane waves:   18785
 k-point 60 :   0.2500 0.2500 0.0000  plane waves:   18811
 k-point 61 :   0.2396 0.2396 0.0000  plane waves:   18789
 k-point 62 :   0.2292 0.2292 0.0000  plane waves:   18791
 k-point 63 :   0.2187 0.2187 0.0000  plane waves:   18789
 k-point 64 :   0.2083 0.2083 0.0000  plane waves:   18793
 k-point 65 :   0.1979 0.1979 0.0000  plane waves:   18789
 k-point 66 :   0.1875 0.1875 0.0000  plane waves:   18771
 k-point 67 :   0.1771 0.1771 0.0000  plane waves:   18779
 k-point 68 :   0.1667 0.1667 0.0000  plane waves:   18771
 k-point 69 :   0.1562 0.1562 0.0000  plane waves:   18757
 k-point 70 :   0.1458 0.1458 0.0000  plane waves:   18737
 k-point 71 :   0.1354 0.1354 0.0000  plane waves:   18757
 k-point 72 :   0.1250 0.1250 0.0000  plane waves:   18749
 k-point 73 :   0.1146 0.1146 0.0000  plane waves:   18767
 k-point 74 :   0.1042 0.1042 0.0000  plane waves:   18759
 k-point 75 :   0.0937 0.0937 0.0000  plane waves:   18753
 k-point 76 :   0.0833 0.0833 0.0000  plane waves:   18767
 k-point 77 :   0.0729 0.0729 0.0000  plane waves:   18757
 k-point 78 :   0.0625 0.0625 0.0000  plane waves:   18771
 k-point 79 :   0.0521 0.0521 0.0000  plane waves:   18787
 k-point 80 :   0.0417 0.0417 0.0000  plane waves:   18771
 k-point 81 :   0.0312 0.0312 0.0000  plane waves:   18763
 k-point 82 :   0.0208 0.0208 0.0000  plane waves:   18779
 k-point 83 :   0.0104 0.0104 0.0000  plane waves:   18777
 k-point 84 :   0.0000 0.0000 0.0000  plane waves:   18757

 maximum and minimum number of plane-waves per node :      4733     4667

 maximum number of plane-waves:     18837
 maximum index in each direction: 
   IXMAX=   16   IYMAX=   16   IZMAX=   18
   IXMIN=  -17   IYMIN=  -17   IZMIN=  -18

 WARNING: aliasing errors must be expected set NGX to  68 to avoid them
 WARNING: aliasing errors must be expected set NGY to  68 to avoid them
 WARNING: aliasing errors must be expected set NGZ to  74 to avoid them
 aliasing errors are usually negligible using standard VASP settings
 and one can safely disregard these warnings

 real space projection operators:
  total allocation   :       6434.69 KBytes
  max/ min on nodes  :       1658.00       1560.44


 parallel 3D FFT for wavefunctions:
    minimum data exchange during FFTs selected (reduces bandwidth)
 parallel 3D FFT for charge:
    minimum data exchange during FFTs selected (reduces bandwidth)


 FFT grid for exact exchange (Hartree Fock) 
  NGX = 36; NGY = 36; NGZ = 40


 Radii for the augmentation spheres in the non-local exchange
 for species   1 augmentation radius   1.405 (default was   1.041)
       energy cutoff for augmentation   2000.0
 for species   2 augmentation radius   0.957 (default was   0.709)
       energy cutoff for augmentation   2000.0

 real space projection operators:
  total allocation   :       2797.24 KBytes
  max/ min on nodes  :        703.55        687.73

 Maximum index for augmentation-charges in exchange          221
  SETUP_FOCK is finished

 total amount of memory used by VASP on root node    80879. kBytes
========================================================================

   base      :      30000. kBytes
   nonlr-proj:       6289. kBytes
   fftplans  :       2478. kBytes
   grid      :       2306. kBytes
   one-center:         58. kBytes
   HF        :          9. kBytes
   wavefun   :      39739. kBytes

     INWAV:  cpu time   81.9914: real time   81.9998
 charge density for first step will be calculated from the start-wavefunctions


--------------------------------------------------------------------------------------------------------


 Maximum index for non-local projection operator          509
 Maximum index for augmentation-charges          148 (set IRDMAX)


--------------------------------------------------------------------------------------------------------


 initial charge from wavefunction
 First call to EWALD:  gamma=   0.196
 Maximum number of real-space cells 3x 3x 3
 Maximum number of reciprocal cells 3x 3x 3

 FEWALD executed in parallel
    FEWALD:  cpu time    0.0031: real time    0.0031


----------------------------------------- Iteration    1(   1)  ---------------------------------------


    POTLOK:  cpu time    0.0583: real time    0.0583
    SETDIJ:  cpu time    0.0499: real time    0.0499
     EDDAV:  cpu time  450.1050: real time  450.1841
       DOS:  cpu time    0.0076: real time    0.0076
    CHARGE:  cpu time    0.0219: real time    0.0219
    MIXING:  cpu time    0.0003: real time    0.0003
    --------------------------------------------
      LOOP:  cpu time  450.2462: real time  450.6283

 eigenvalue-minimisations  : 35264
 total energy-change (2. order) :-0.6648848E+03  (-0.1017774E-05)
 number of electron     290.0000043 magnetization 
 augmentation part        8.0597597 magnetization 

 Free energy of the ion-electron system (eV)
  ---------------------------------------------------
  alpha Z        PSCENC =       288.70895192
  Ewald energy   TEWEN  =    -10797.44967539
  -Hartree energ DENC   =     -2838.09062804
  -exchange      EXHF   =       864.93192408
  -V(xc)+E(xc)   XCENC  =      -159.41274648
  PAW double counting   =    160356.29510361  -159529.63486514
  entropy T*S    EENTRO =        -0.00000000
  eigenvalues    EBANDS =      -205.27525303
  atomic energy  EATOM  =     11355.04234567
  Solvation  Ediel_sol  =         0.00000000
  ---------------------------------------------------
  free energy    TOTEN  =      -664.88484280 eV

  energy without entropy =     -664.88484280  energy(sigma->0) =     -664.88484280
  exchange ACFDT corr.  =         0.00000000  see jH, gK, PRB 81, 115126


--------------------------------------------------------------------------------------------------------




----------------------------------------- Iteration    1(   2)  ---------------------------------------


    POTLOK:  cpu time    0.0279: real time    0.0279
    SETDIJ:  cpu time    0.0472: real time    0.0472
     EDDAV:  cpu time  481.4528: real time  481.4922
       DOS:  cpu time    0.0083: real time    0.0083
    CHARGE:  cpu time    0.0218: real time    0.0218
    MIXING:  cpu time    0.0001: real time    0.0001
    --------------------------------------------
      LOOP:  cpu time  481.5594: real time  481.6335

 eigenvalue-minimisations  : 38720
 total energy-change (2. order) :-0.4819719E-07  (-0.1250996E-06)
 number of electron     290.0000043 magnetization 
 augmentation part        8.0597703 magnetization 

 Free energy of the ion-electron system (eV)
  ---------------------------------------------------
  alpha Z        PSCENC =       288.70895192
  Ewald energy   TEWEN  =    -10797.44967539
  -Hartree energ DENC   =     -2838.09033099
  -exchange      EXHF   =       864.93171304
  -V(xc)+E(xc)   XCENC  =      -159.41275918
  PAW double counting   =    160339.15962069  -159512.49932941
  entropy T*S    EENTRO =        -0.00000000
  eigenvalues    EBANDS =      -205.27537921
  atomic energy  EATOM  =     11355.04234567
  Solvation  Ediel_sol  =         0.00000000
  ---------------------------------------------------
  free energy    TOTEN  =      -664.88484285 eV

  energy without entropy =     -664.88484285  energy(sigma->0) =     -664.88484285
  exchange ACFDT corr.  =        -0.00000000  see jH, gK, PRB 81, 115126


--------------------------------------------------------------------------------------------------------




----------------------------------------- Iteration    1(   3)  ---------------------------------------


    POTLOK:  cpu time    0.0273: real time    0.0273
    SETDIJ:  cpu time    0.0483: real time    0.0483
     EDDAV:  cpu time  487.1874: real time  487.2251
       DOS:  cpu time    0.0068: real time    0.0068
    CHARGE:  cpu time    0.0213: real time    0.0213
    MIXING:  cpu time    0.0001: real time    0.0001
    --------------------------------------------
      LOOP:  cpu time  487.2924: real time  487.3639

 eigenvalue-minimisations  : 39744
 total energy-change (2. order) : 0.7353231E-07  (-0.2501464E-07)
 number of electron     290.0000043 magnetization 
 augmentation part        8.0597654 magnetization 

 Free energy of the ion-electron system (eV)
  ---------------------------------------------------
  alpha Z        PSCENC =       288.70895192
  Ewald energy   TEWEN  =    -10797.44967539
  -Hartree energ DENC   =     -2838.09016618
  -exchange      EXHF   =       864.93173635
  -V(xc)+E(xc)   XCENC  =      -159.41276786
  PAW double counting   =    160325.74427846  -159499.08397135
  entropy T*S    EENTRO =        -0.00000000
  eigenvalues    EBANDS =      -205.27557440
  atomic energy  EATOM  =     11355.04234567
  Solvation  Ediel_sol  =         0.00000000
  ---------------------------------------------------
  free energy    TOTEN  =      -664.88484278 eV

  energy without entropy =     -664.88484278  energy(sigma->0) =     -664.88484278
  exchange ACFDT corr.  =         0.00000000  see jH, gK, PRB 81, 115126


--------------------------------------------------------------------------------------------------------




----------------------------------------- Iteration    1(   4)  ---------------------------------------


    POTLOK:  cpu time    0.0274: real time    0.0274
    SETDIJ:  cpu time    0.0466: real time    0.0466
     EDDAV:  cpu time  521.2134: real time  521.2545
       DOS:  cpu time    0.0067: real time    0.0067
    CHARGE:  cpu time    0.0221: real time    0.0221
    MIXING:  cpu time    0.0001: real time    0.0001
    --------------------------------------------
      LOOP:  cpu time  521.3173: real time  521.3938

 eigenvalue-minimisations  : 43680
 total energy-change (2. order) : 0.6232654E-07  (-0.8285206E-08)
 number of electron     290.0000043 magnetization 
 augmentation part        8.0597639 magnetization 

 Free energy of the ion-electron system (eV)
  ---------------------------------------------------
  alpha Z        PSCENC =       288.70895192
  Ewald energy   TEWEN  =    -10797.44967539
  -Hartree energ DENC   =     -2838.09009550
  -exchange      EXHF   =       864.93177287
  -V(xc)+E(xc)   XCENC  =      -159.41277132
  PAW double counting   =    160315.86466017  -159489.20435425
  entropy T*S    EENTRO =        -0.00000000
  eigenvalues    EBANDS =      -205.27567689
  atomic energy  EATOM  =     11355.04234567
  Solvation  Ediel_sol  =         0.00000000
  ---------------------------------------------------
  free energy    TOTEN  =      -664.88484272 eV

  energy without entropy =     -664.88484272  energy(sigma->0) =     -664.88484272
  exchange ACFDT corr.  =         0.00000000  see jH, gK, PRB 81, 115126


--------------------------------------------------------------------------------------------------------




----------------------------------------- Iteration    1(   5)  ---------------------------------------


    POTLOK:  cpu time    0.0269: real time    0.0269
    SETDIJ:  cpu time    0.0474: real time    0.0474
     EDDAV:  cpu time  484.3914: real time  484.4279
       DOS:  cpu time    0.0076: real time    0.0076
    CHARGE:  cpu time    0.0220: real time    0.0220
    MIXING:  cpu time    0.0001: real time    0.0001
    --------------------------------------------
      LOOP:  cpu time  484.4966: real time  484.5680

 eigenvalue-minimisations  : 39104
 total energy-change (2. order) : 0.4464130E-07  (-0.3009249E-08)
 number of electron     290.0000043 magnetization 
 augmentation part        8.0597615 magnetization 

 Free energy of the ion-electron system (eV)
  ---------------------------------------------------
  alpha Z        PSCENC =       288.70895192
  Ewald energy   TEWEN  =    -10797.44967539
  -Hartree energ DENC   =     -2838.09013677
  -exchange      EXHF   =       864.93178965
  -V(xc)+E(xc)   XCENC  =      -159.41277002
  PAW double counting   =    160308.77044240  -159482.11013744
  entropy T*S    EENTRO =        -0.00000000
  eigenvalues    EBANDS =      -205.27565268
  atomic energy  EATOM  =     11355.04234567
  Solvation  Ediel_sol  =         0.00000000
  ---------------------------------------------------
  free energy    TOTEN  =      -664.88484267 eV

  energy without entropy =     -664.88484267  energy(sigma->0) =     -664.88484267
  exchange ACFDT corr.  =         0.00000000  see jH, gK, PRB 81, 115126


--------------------------------------------------------------------------------------------------------




----------------------------------------- Iteration    1(   6)  ---------------------------------------


    POTLOK:  cpu time    0.0277: real time    0.0277
    SETDIJ:  cpu time    0.0472: real time    0.0472
     EDDAV:  cpu time  425.5194: real time  425.5512
       DOS:  cpu time    0.0056: real time    0.0056
    CHARGE:  cpu time    0.0228: real time    0.0228
    MIXING:  cpu time    0.0001: real time    0.0001
    --------------------------------------------
      LOOP:  cpu time  425.6240: real time  425.6934

 eigenvalue-minimisations  : 32000
 total energy-change (2. order) : 0.3049945E-07  (-0.9683364E-09)
 number of electron     290.0000043 magnetization 
 augmentation part        8.0597611 magnetization 

 Free energy of the ion-electron system (eV)
  ---------------------------------------------------
  alpha Z        PSCENC =       288.70895192
  Ewald energy   TEWEN  =    -10797.44967539
  -Hartree energ DENC   =     -2838.09015425
  -exchange      EXHF   =       864.93179273
  -V(xc)+E(xc)   XCENC  =      -159.41276932
  PAW double counting   =    160303.95775201  -159477.29744709
  entropy T*S    EENTRO =        -0.00000000
  eigenvalues    EBANDS =      -205.27563891
  atomic energy  EATOM  =     11355.04234567
  Solvation  Ediel_sol  =         0.00000000
  ---------------------------------------------------
  free energy    TOTEN  =      -664.88484264 eV

  energy without entropy =     -664.88484264  energy(sigma->0) =     -664.88484264
  exchange ACFDT corr.  =        -0.00000000  see jH, gK, PRB 81, 115126


--------------------------------------------------------------------------------------------------------




----------------------------------------- Iteration    1(   7)  ---------------------------------------


    POTLOK:  cpu time    0.0272: real time    0.0272
    SETDIJ:  cpu time    0.0480: real time    0.0480
     EDDAV:  cpu time  356.4267: real time  356.4536
       DOS:  cpu time    0.0065: real time    0.0065
    CHARGE:  cpu time    0.0220: real time    0.0220
    MIXING:  cpu time    0.0001: real time    0.0001
    --------------------------------------------
      LOOP:  cpu time  356.5317: real time  356.5927

 eigenvalue-minimisations  : 24448
 total energy-change (2. order) : 0.1909189E-07  (-0.3832683E-09)
 number of electron     290.0000043 magnetization 
 augmentation part        8.0597612 magnetization 

 Free energy of the ion-electron system (eV)
  ---------------------------------------------------
  alpha Z        PSCENC =       288.70895192
  Ewald energy   TEWEN  =    -10797.44967539
  -Hartree energ DENC   =     -2838.09014402
  -exchange      EXHF   =       864.93178687
  -V(xc)+E(xc)   XCENC  =      -159.41276992
  PAW double counting   =    160300.95354694  -159474.29324253
  entropy T*S    EENTRO =        -0.00000000
  eigenvalues    EBANDS =      -205.27564216
  atomic energy  EATOM  =     11355.04234567
  Solvation  Ediel_sol  =         0.00000000
  ---------------------------------------------------
  free energy    TOTEN  =      -664.88484262 eV

  energy without entropy =     -664.88484262  energy(sigma->0) =     -664.88484262
  exchange ACFDT corr.  =         0.00000000  see jH, gK, PRB 81, 115126


--------------------------------------------------------------------------------------------------------




----------------------------------------- Iteration    1(   8)  ---------------------------------------


    POTLOK:  cpu time    0.0272: real time    0.0272
    SETDIJ:  cpu time    0.0483: real time    0.0483
     EDDAV:  cpu time  355.0844: real time  355.1111
       DOS:  cpu time    0.0062: real time    0.0062
    --------------------------------------------
      LOOP:  cpu time  355.1673: real time  355.2281

 eigenvalue-minimisations  : 24192
 total energy-change (2. order) : 0.1144804E-07  (-0.1726657E-09)
 number of electron     290.0000043 magnetization 
 augmentation part        8.0597612 magnetization 

 Free energy of the ion-electron system (eV)
  ---------------------------------------------------
  alpha Z        PSCENC =       288.70895192
  Ewald energy   TEWEN  =    -10797.44967539
  -Hartree energ DENC   =     -2838.09012276
  -exchange      EXHF   =       864.93178384
  -V(xc)+E(xc)   XCENC  =      -159.41277094
  PAW double counting   =    160299.20675317  -159472.54644928
  entropy T*S    EENTRO =        -0.00000000
  eigenvalues    EBANDS =      -205.27565884
  atomic energy  EATOM  =     11355.04234567
  Solvation  Ediel_sol  =         0.00000000
  ---------------------------------------------------
  free energy    TOTEN  =      -664.88484261 eV

  energy without entropy =     -664.88484261  energy(sigma->0) =     -664.88484261
  exchange ACFDT corr.  =         0.00000000  see jH, gK, PRB 81, 115126


--------------------------------------------------------------------------------------------------------




 average (electrostatic) potential at core
  the test charge radii are     1.0406  0.7089
  (the norm of the test charge is              1.0000)
       1 -65.7251       2 -65.7412       3 -66.0704       4 -65.8545       5 -66.4628
       6 -65.7421       7 -66.0796       8 -65.6537       9 -66.5818      10 -65.8600
      11 -66.1931      12 -65.8545      13 -66.4628      14 -65.7624      15 -66.5727
      16 -65.6537      17 -66.5819      18 -65.7412      19 -66.0704      20 -65.7724
      21 -65.7532      22 -65.8399      23 -65.8883      24 -66.0302      25 -65.8525
      26 -65.9248      27 -66.2485      28 -66.2386      29 -65.6944      30 -65.8399
      31 -65.8883      32 -65.9899      33 -65.8500      34 -65.9248      35 -66.2485
      36 -65.7724      37 -65.7532      38 -52.9175      39 -52.7235      40 -52.9045
      41 -52.8500      42 -52.8772      43 -52.6338      44 -53.0302      45 -52.3033
      46 -52.6689      47 -52.8194      48 -52.9045      49 -52.8500      50 -53.1137
      51 -52.9069      52 -53.0302      53 -52.3033      54 -52.9175      55 -52.7235
      56 -52.5237      57 -53.1636      58 -52.7434      59 -53.0243      60 -52.8629
      61 -53.0230      62 -52.7159      63 -53.9734      64 -52.8535      65 -53.1311
      66 -52.7434      67 -53.0242      68 -52.6780      69 -53.1154      70 -52.7159
      71 -53.9735      72 -52.5237      73 -53.1636



 E-fermi :   8.7320     XC(G=0):  -8.4550     alpha+bet :-16.4926


 k-point     1 :       0.0000    0.0000    0.0000
  band No.  band energies     occupation 
      1     -12.2469      2.00000
      2     -11.3828      2.00000
      3     -11.1357      2.00000
      4     -10.9392      2.00000
      5     -10.9385      2.00000
      6     -10.8151      2.00000
      7     -10.6819      2.00000
      8     -10.6682      2.00000
      9     -10.6620      2.00000
     10     -10.2825      2.00000
     11     -10.2578      2.00000
     12     -10.1302      2.00000
     13     -10.0208      2.00000
     14     -10.0062      2.00000
     15      -9.9876      2.00000
     16      -9.9624      2.00000
     17      -9.9591      2.00000
     18      -9.9024      2.00000
     19      -9.8844      2.00000
     20      -9.8832      2.00000
     21      -9.7212      2.00000
     22      -9.6146      2.00000
     23      -9.5429      2.00000
     24      -9.4700      2.00000
     25      -9.3409      2.00000
     26      -9.3235      2.00000
     27      -9.1757      2.00000
     28      -9.1585      2.00000
     29      -9.1365      2.00000
     30      -9.1253      2.00000
     31      -9.1062      2.00000
     32      -9.0550      2.00000
     33      -9.0413      2.00000
     34      -8.9941      2.00000
     35      -8.9642      2.00000
     36      -8.9082      2.00000
     37      -1.6945      2.00000
     38      -1.1104      2.00000
     39      -0.7891      2.00000
     40      -0.6806      2.00000
     41      -0.5580      2.00000
     42      -0.4281      2.00000
     43      -0.3564      2.00000
     44      -0.2863      2.00000
     45      -0.2504      2.00000
     46      -0.2325      2.00000
     47      -0.1796      2.00000
     48      -0.1725      2.00000
     49      -0.1671      2.00000
     50      -0.1584      2.00000
     51      -0.1450      2.00000
     52      -0.1225      2.00000
     53      -0.0717      2.00000
     54      -0.0585      2.00000
     55      -0.0496      2.00000
     56       0.0095      2.00000
     57       0.0430      2.00000
     58       0.0721      2.00000
     59       0.1143      2.00000
     60       0.1669      2.00000
     61       0.2149      2.00000
     62       0.2303      2.00000
     63       0.2766      2.00000
     64       0.2866      2.00000
     65       0.3960      2.00000
     66       0.3970      2.00000
     67       0.6429      2.00000
     68       0.6598      2.00000
     69       0.7944      2.00000
     70       0.8380      2.00000
     71       0.8588      2.00000
[...]
   0.295E+01 -.170E+01 -.392E+01   -.308E+01 0.178E+01 0.450E+01   0.120E+00 -.692E-01 -.574E+00   0.295E-06 -.252E-06 -.201E-05
   0.128E+01 -.738E+00 0.272E+02   -.173E+01 0.100E+01 -.247E+02   0.448E+00 -.259E+00 -.246E+01   0.138E-05 -.782E-06 0.279E-05
   0.119E+01 0.519E+01 -.432E+01   -.642E+00 -.497E+01 0.423E+01   -.533E+00 -.213E+00 0.885E-01   0.188E-06 0.202E-05 -.315E-06
   -.312E+01 -.671E+01 0.117E+02   0.291E+01 0.371E+01 -.955E+01   0.205E+00 0.294E+01 -.211E+01   -.257E-05 0.314E-05 -.700E-07
   0.104E+01 -.598E+00 -.337E+01   -.424E+00 0.245E+00 0.367E+01   -.602E+00 0.347E+00 -.299E+00   -.433E-06 0.508E-06 -.264E-06
   -.448E+01 0.258E+01 0.737E+01   0.593E+01 -.342E+01 -.553E+01   -.141E+01 0.814E+00 -.179E+01   -.288E-05 0.180E-05 -.204E-05
   0.251E+01 0.327E+01 0.860E+01   -.196E+01 -.227E+01 -.453E+01   -.549E+00 -.987E+00 -.401E+01   0.143E-05 -.601E-06 -.121E-05
   -.721E+01 -.107E+02 0.162E+02   0.569E+01 0.112E+02 -.145E+02   0.150E+01 -.482E+00 -.165E+01   0.233E-05 -.214E-05 0.125E-06
   0.578E+01 0.134E+01 -.620E+01   -.518E+01 -.120E+01 0.616E+01   -.592E+00 -.146E+00 0.415E-01   0.788E-06 0.133E-05 -.113E-05
   0.275E+01 0.127E+01 0.740E+01   -.287E+01 -.147E+01 -.660E+01   0.125E+00 0.189E+00 -.785E+00   0.370E-06 0.731E-06 0.119E-05
   0.706E+01 0.632E+00 0.995E+01   -.647E+01 -.763E+00 -.778E+01   -.588E+00 0.128E+00 -.212E+01   0.159E-05 0.152E-06 -.767E-05
   -.193E+00 -.879E+01 -.165E+02   0.791E+00 0.835E+01 0.143E+02   -.582E+00 0.443E+00 0.221E+01   0.198E-05 0.146E-06 0.683E-05
   0.389E+01 0.144E+01 0.388E+01   -.315E+01 -.723E+00 -.327E+01   -.727E+00 -.704E+00 -.604E+00   0.365E-06 0.471E-06 -.809E-05
   -.733E+01 -.316E+01 -.710E+01   0.712E+01 0.269E+01 0.710E+01   0.205E+00 0.470E+00 -.843E-02   -.190E-05 -.481E-06 0.746E-05
   -.284E+01 0.164E+01 0.202E+01   0.278E+01 -.161E+01 -.167E+01   0.581E-01 -.336E-01 -.336E+00   -.678E-06 0.202E-06 -.941E-05
   -.290E+01 0.167E+01 -.396E+01   0.275E+01 -.159E+01 0.423E+01   0.143E+00 -.824E-01 -.278E+00   -.290E-06 0.655E-08 0.986E-05
   -.667E+01 0.197E+01 0.903E+01   0.604E+01 -.268E+01 -.730E+01   0.616E+00 0.689E+00 -.169E+01   -.898E-06 0.155E-05 -.839E-05
   -.104E+01 0.188E+01 -.162E+02   0.402E+00 -.200E+01 0.132E+02   0.623E+00 0.116E+00 0.289E+01   0.714E-08 0.245E-05 0.914E-05
   0.138E+01 -.797E+00 -.339E+01   -.228E+01 0.132E+01 0.411E+01   0.883E+00 -.510E+00 -.695E+00   0.143E-05 -.703E-06 -.909E-05
   0.561E+01 -.324E+01 -.259E+02   -.376E+01 0.217E+01 0.306E+02   -.182E+01 0.105E+01 -.467E+01   0.395E-05 -.220E-05 0.535E-05
   0.698E+00 -.409E+01 0.388E+01   -.950E+00 0.309E+01 -.327E+01   0.246E+00 0.982E+00 -.604E+00   -.144E-06 -.718E-06 -.814E-05
   -.927E+00 0.793E+01 -.710E+01   0.123E+01 -.751E+01 0.710E+01   -.305E+00 -.413E+00 -.843E-02   -.501E-06 0.174E-05 0.753E-05
   0.543E+00 -.313E+00 0.516E+01   -.373E+00 0.215E+00 -.426E+01   -.167E+00 0.962E-01 -.873E+00   -.768E-06 0.561E-06 -.676E-05
   0.142E+01 -.819E+00 -.571E+01   -.124E+01 0.717E+00 0.534E+01   -.178E+00 0.103E+00 0.359E+00   -.193E-05 0.125E-05 0.767E-05
   -.504E+01 0.479E+01 0.903E+01   0.534E+01 -.389E+01 -.730E+01   -.288E+00 -.878E+00 -.169E+01   -.172E-05 0.134E-06 -.833E-05
   -.215E+01 -.432E-01 -.162E+02   0.194E+01 0.654E+00 0.132E+02   0.211E+00 -.598E+00 0.289E+01   -.201E-05 -.111E-05 0.907E-05
   0.298E+01 -.643E+01 0.995E+01   -.257E+01 0.598E+01 -.778E+01   -.405E+00 0.445E+00 -.212E+01   0.750E-06 -.162E-05 -.774E-05
   0.752E+01 0.456E+01 -.165E+02   -.683E+01 -.486E+01 0.143E+02   -.675E+00 0.283E+00 0.221E+01   0.977E-06 -.193E-05 0.689E-05
   0.287E+01 -.473E+01 0.965E+01   -.285E+01 0.533E+01 -.995E+01   -.244E-01 -.541E+00 0.261E+00   -.229E-06 0.170E-06 -.912E-05
   -.148E+01 -.632E+01 -.122E+02   0.134E+01 0.632E+01 0.124E+02   0.136E+00 -.621E-03 -.216E+00   -.473E-06 -.135E-05 0.903E-05
   -.483E+01 -.149E+01 0.938E+01   0.526E+01 0.200E+01 -.961E+01   -.383E+00 -.459E+00 0.214E+00   -.186E-05 -.442E-06 -.967E-05
   -.704E+01 0.207E+01 -.137E+02   0.839E+01 -.212E+01 0.144E+02   -.121E+01 0.412E-01 -.591E+00   -.310E-05 -.376E-06 0.114E-04
   -.501E+01 0.289E+01 0.102E+02   0.590E+01 -.341E+01 -.109E+02   -.800E+00 0.462E+00 0.586E+00   0.516E-06 -.560E-06 -.909E-05
   -.149E+01 0.861E+00 -.119E+02   0.155E+01 -.897E+00 0.124E+02   -.608E-01 0.351E-01 -.429E+00   0.725E-07 -.112E-06 0.967E-05
   -.167E+01 0.372E+01 -.110E+01   0.233E+01 -.321E+01 0.574E+01   -.589E+00 -.454E+00 -.418E+01   0.182E-05 0.385E-06 -.107E-04
   0.469E+01 -.769E+01 -.281E+02   -.570E+01 0.674E+01 0.284E+02   0.881E+00 0.818E+00 -.294E+00   0.353E-05 -.132E-05 0.847E-05
   0.919E+01 -.530E+01 0.254E+01   -.922E+01 0.532E+01 -.194E+01   0.282E-01 -.163E-01 -.552E+00   0.421E-06 -.207E-06 -.985E-05
   -.695E+01 0.401E+01 -.315E+02   0.692E+01 -.400E+01 0.331E+02   0.106E-01 -.609E-02 -.149E+01   -.921E-06 0.507E-06 0.798E-05
   -.113E+01 0.492E+01 0.938E+01   0.898E+00 -.555E+01 -.961E+01   0.206E+00 0.561E+00 0.214E+00   -.703E-06 0.158E-05 -.962E-05
   -.532E+01 0.506E+01 -.137E+02   0.603E+01 -.621E+01 0.144E+02   -.643E+00 0.103E+01 -.591E+00   -.131E-05 0.236E-05 0.116E-04
   -.142E+01 0.820E+00 0.574E+01   0.820E+00 -.474E+00 -.404E+01   0.534E+00 -.308E+00 -.153E+01   -.153E-05 0.135E-05 -.103E-04
   -.262E+01 0.151E+01 -.132E+02   0.312E+01 -.180E+01 0.141E+02   -.414E+00 0.239E+00 -.846E+00   -.438E-05 0.286E-05 0.126E-04
   -.406E+01 -.418E+00 -.110E+01   0.395E+01 -.407E+00 0.574E+01   0.988E-01 0.737E+00 -.418E+01   0.794E-06 -.177E-05 -.108E-04
   0.900E+01 -.214E+00 -.281E+02   -.869E+01 0.157E+01 0.284E+02   -.268E+00 -.117E+01 -.294E+00   0.328E-05 -.248E-05 0.816E-05
   0.553E+01 -.122E+00 0.965E+01   -.604E+01 -.200E+00 -.995E+01   0.456E+00 0.291E+00 0.261E+00   0.173E-06 0.137E-06 -.921E-05
   0.473E+01 0.445E+01 -.122E+02   -.481E+01 -.432E+01 0.124E+02   0.687E-01 -.118E+00 -.216E+00   0.114E-05 0.102E-05 0.911E-05
   0.516E+01 -.120E+01 -.714E+01   -.603E+01 0.980E+00 0.890E+01   0.766E+00 0.192E+00 -.158E+01   0.112E-05 -.391E-07 -.653E-05
   -.222E+01 -.888E+01 0.170E+02   0.110E+01 0.875E+01 -.201E+02   0.998E+00 0.116E+00 0.284E+01   0.122E-05 -.509E-06 0.551E-05
   -.404E+00 -.194E+01 -.571E+01   0.366E+00 0.133E+01 0.594E+01   0.304E-01 0.545E+00 -.220E+00   -.137E-05 -.272E-06 -.742E-05
   -.700E+01 -.347E+01 0.109E+02   0.736E+01 0.375E+01 -.115E+02   -.327E+00 -.250E+00 0.504E+00   -.191E-05 -.401E-06 0.632E-05
   -.384E+01 0.222E+01 -.149E+01   0.336E+01 -.194E+01 0.122E+01   0.430E+00 -.248E+00 0.240E+00   -.566E-06 -.109E-06 -.694E-05
   -.432E+01 0.249E+01 0.435E+01   0.419E+01 -.242E+01 -.451E+01   0.117E+00 -.676E-01 0.138E+00   -.721E-06 0.564E-07 0.510E-05
   -.608E+01 0.341E+01 -.661E+01   0.656E+01 -.335E+01 0.820E+01   -.425E+00 -.613E-01 -.143E+01   -.414E-06 0.468E-06 -.651E-05
   0.492E+00 0.276E+02 0.106E+02   -.589E+00 -.324E+02 -.114E+02   0.977E-01 0.422E+01 0.684E+00   0.153E-05 0.207E-05 0.334E-05
   0.438E+01 -.253E+01 -.421E+01   -.399E+01 0.230E+01 0.328E+01   -.356E+00 0.206E+00 0.811E+00   0.178E-05 -.872E-06 -.642E-05
   0.258E+02 -.149E+02 0.408E+02   -.299E+02 0.172E+02 -.380E+02   0.369E+01 -.213E+01 -.246E+01   0.151E-05 -.440E-06 0.683E-05
   0.148E+01 0.132E+01 -.571E+01   -.972E+00 -.984E+00 0.594E+01   -.457E+00 -.299E+00 -.220E+00   -.318E-06 0.101E-05 -.761E-05
   -.495E+00 0.779E+01 0.109E+02   0.436E+00 -.825E+01 -.115E+02   0.532E-01 0.408E+00 0.504E+00   -.368E-06 0.168E-05 0.612E-05
   0.959E+00 -.554E+00 -.370E+01   -.618E+00 0.356E+00 0.405E+01   -.306E+00 0.177E+00 -.322E+00   -.514E-06 0.711E-06 -.642E-05
   0.775E+00 -.447E+00 0.725E+01   0.566E+00 -.327E+00 -.876E+01   -.119E+01 0.688E+00 0.134E+01   -.208E-05 0.147E-05 0.510E-05
   -.600E+01 0.356E+01 -.661E+01   0.618E+01 -.400E+01 0.820E+01   -.159E+00 0.398E+00 -.143E+01   -.425E-06 0.386E-06 -.660E-05
   -.237E+02 -.142E+02 0.106E+02   0.277E+02 0.167E+02 -.114E+02   -.361E+01 -.219E+01 0.684E+00   -.953E-06 -.186E-05 0.355E-05
   0.362E+01 -.387E+01 -.714E+01   -.386E+01 0.473E+01 0.890E+01   0.217E+00 -.760E+00 -.158E+01   0.102E-05 -.128E-05 -.659E-05
   0.658E+01 0.636E+01 0.170E+02   -.702E+01 -.533E+01 -.201E+02   0.398E+00 -.922E+00 0.284E+01   0.136E-05 -.141E-05 0.583E-05
 -----------------------------------------------------------------------------------------------
   0.188E+01 -.108E+01 0.347E+02   -.542E-13 -.515E-13 -.320E-13   -.165E+01 0.950E+00 -.334E+02   0.895E-06 0.355E-06 -.152E-04


 POSITION                                       TOTAL-FORCE (eV/Angst)
 -----------------------------------------------------------------------------------
      4.36357      2.84268      8.76214              NaN           NaN           NaN
     -0.01243      1.78375      4.95809              NaN           NaN           NaN
     -0.01096      1.79375      9.88200              NaN           NaN           NaN
     -1.52082      4.47477      4.94719              NaN           NaN           NaN
     -1.54305      4.47099      9.87178              NaN           NaN           NaN
     -3.09777      7.15047      4.97627              NaN           NaN           NaN
     -3.10176      7.15277      9.86258              NaN           NaN           NaN
      3.06828      1.70346      4.73456              NaN           NaN           NaN
      2.93414      1.65294      0.29360              NaN           NaN           NaN
      1.54064      4.47248      4.87800              NaN           NaN           NaN
      1.54575      4.46953      0.06340              NaN           NaN           NaN
      0.00793      7.12264      4.94719              NaN           NaN           NaN
      0.00008      7.14378      9.87178              NaN           NaN           NaN
      6.20953      1.77690      4.92028              NaN           NaN           NaN
      6.26927      1.74240      0.06971              NaN           NaN           NaN
      4.70250      4.53401      4.73456              NaN           NaN           NaN
      4.67918      4.67544      0.29360              NaN           NaN           NaN
      3.09262      7.16184      4.95809              NaN           NaN           NaN
      3.08468      7.15557      9.88200              NaN           NaN           NaN
      1.46555      0.84336      2.51295              NaN           NaN           NaN
      1.55233      0.89170      7.37663              NaN           NaN           NaN
     -0.01612      3.57267      2.47597              NaN           NaN           NaN
      0.05564      3.56617      7.40641              NaN           NaN           NaN
     -1.55173      6.25786      2.44725              NaN           NaN           NaN
     -1.54208      6.25229      7.40807              NaN           NaN           NaN
      4.67959      0.84522      2.50490              NaN           NaN           NaN
      4.60318      0.88187      7.24263              NaN           NaN           NaN
      3.08865      3.57874      2.38580              NaN           NaN           NaN
      3.23934      3.49173      6.82055              NaN           NaN           NaN
      1.54152      6.27058      2.47597              NaN           NaN           NaN
      1.58302      6.21168      7.40641              NaN           NaN           NaN
      7.74806      0.88863      2.48430              NaN           NaN           NaN
      7.73648      0.89531      7.40221              NaN           NaN           NaN
      6.25142      3.56770      2.50490              NaN           NaN           NaN
      6.18147      3.61555      7.24263              NaN           NaN           NaN
      4.64600      6.35207      2.51295              NaN           NaN           NaN
      4.64753      6.25274      7.37663              NaN           NaN           NaN
     -0.01306      1.79023      1.85853              NaN           NaN           NaN
     -0.00482      1.78308      6.84649              NaN           NaN           NaN
     -1.54756      4.46756      1.84430              NaN           NaN           NaN
     -1.50201      4.46530      6.84306              NaN           NaN           NaN
     -3.09585      7.14936      1.83559              NaN           NaN           NaN
     -3.08710      7.14431      6.86264              NaN           NaN           NaN
      3.06926      1.69281      2.10217              NaN           NaN           NaN
      3.02911      1.62151      6.56952              NaN           NaN           NaN
      1.50067      4.49555      1.95054              NaN           NaN           NaN
      1.60574      4.43489      6.78794              NaN           NaN           NaN
      0.00080      7.14940      1.84430              NaN           NaN           NaN
      0.02554      7.11108      6.84306              NaN           NaN           NaN
      6.19442      1.78562      1.90481              NaN           NaN           NaN
      6.20473      1.77967      6.80315              NaN           NaN           NaN
      4.71221      4.53849      2.10217              NaN           NaN           NaN
      4.75389      4.60891      6.56952              NaN           NaN           NaN
      3.08668      7.15915      1.85853              NaN           NaN           NaN
      3.09700      7.15559      6.84649              NaN           NaN           NaN
      1.46829      0.85278      4.33715              NaN           NaN           NaN
      1.53494      0.89934      9.30581              NaN           NaN           NaN
     -0.00340      3.56270      4.35551              NaN           NaN           NaN
      0.01500      3.57910      9.30667              NaN           NaN           NaN
     -1.55124      6.25758      4.34643              NaN           NaN           NaN
     -1.55247      6.25829      9.30011              NaN           NaN           NaN
      4.69198      0.85048      4.35369              NaN           NaN           NaN
      4.58751      0.99888      9.33165              NaN           NaN           NaN
      3.11210      3.56519      4.36541              NaN           NaN           NaN
      3.17601      3.52830      0.07238              NaN           NaN           NaN
      1.55651      6.26455      4.35551              NaN           NaN           NaN
      1.55151      6.24042      9.30667              NaN           NaN           NaN
      7.74223      0.89199      4.35452              NaN           NaN           NaN
      7.73656      0.89526      9.29972              NaN           NaN           NaN
      6.25305      3.55434      4.35369              NaN           NaN           NaN
      6.07230      3.57061      9.33165              NaN           NaN           NaN
      4.63921      6.34498      4.33715              NaN           NaN           NaN
      4.63222      6.26398      9.30581              NaN           NaN           NaN
 -----------------------------------------------------------------------------------
    total drift:                                     NaN           NaN           NaN


--------------------------------------------------------------------------------------------------------



  FREE ENERGIE OF THE ION-ELECTRON SYSTEM (eV)
  ---------------------------------------------------
  free  energy   TOTEN  =      -664.88484261 eV

  energy  without entropy=     -664.88484261  energy(sigma->0) =     -664.88484261



--------------------------------------------------------------------------------------------------------


    POTLOK:  cpu time    0.0702: real time    0.0703


--------------------------------------------------------------------------------------------------------


     LOOP+:  cpu time 3882.2823: real time 3883.1773
    4ORBIT:  cpu time    0.0000: real time    0.0000



 total charge     

# of ion     s       p       d       tot
----------------------------------------
  1        0.600   0.548   0.000   1.148
  2        0.448   0.474   0.000   0.923
  3        0.448   0.472   0.000   0.919
  4        0.449   0.473   0.000   0.922
  5        0.438   0.447   0.000   0.885
  6        0.449   0.473   0.000   0.922
  7        0.449   0.475   0.000   0.923
  8        0.448   0.481   0.000   0.929
  9        0.465   0.495   0.000   0.960
 10        0.448   0.471   0.000   0.918
 11        0.440   0.455   0.000   0.895
 12        0.449   0.473   0.000   0.922
 13        0.438   0.447   0.000   0.885
 14        0.451   0.479   0.000   0.930
 15        0.456   0.478   0.000   0.934
 16        0.448   0.481   0.000   0.929
 17        0.464   0.495   0.000   0.959
 18        0.449   0.474   0.000   0.923
 19        0.448   0.472   0.000   0.919
 20        0.459   0.497   0.000   0.956
 21        0.447   0.471   0.000   0.919
 22        0.449   0.474   0.000   0.923
 23        0.445   0.464   0.000   0.908
 24        0.443   0.459   0.000   0.902
 25        0.448   0.473   0.000   0.921
 26        0.453   0.485   0.000   0.938
 27        0.443   0.450   0.000   0.894
 28        0.422   0.437   0.000   0.859
 29        0.454   0.468   0.000   0.923
 30        0.449   0.475   0.000   0.924
 31        0.444   0.464   0.000   0.908
 32        0.449   0.474   0.000   0.923
 33        0.448   0.472   0.000   0.920
 34        0.452   0.485   0.000   0.938
 35        0.443   0.451   0.000   0.894
 36        0.459   0.497   0.000   0.956
 37        0.447   0.472   0.000   0.919
 38        1.225   2.664   0.000   3.889
 39        1.225   2.674   0.000   3.899
 40        1.226   2.668   0.000   3.893
 41        1.225   2.667   0.000   3.892
 42        1.227   2.672   0.000   3.899
 43        1.227   2.679   0.000   3.906
 44        1.233   2.690   0.000   3.923
 45        1.240   2.683   0.000   3.922
 46        1.228   2.682   0.000   3.910
 47        1.224   2.648   0.000   3.872
 48        1.226   2.667   0.000   3.892
 49        1.225   2.667   0.000   3.892
 50        1.227   2.675   0.000   3.902
 51        1.228   2.658   0.000   3.885
 52        1.232   2.691   0.000   3.923
 53        1.240   2.682   0.000   3.922
 54        1.226   2.664   0.000   3.889
 55        1.225   2.673   0.000   3.898
 56        1.231   2.705   0.000   3.936
 57        1.227   2.666   0.000   3.893
 58        1.226   2.674   0.000   3.900
 59        1.224   2.655   0.000   3.879
 60        1.224   2.654   0.000   3.878
 61        1.225   2.665   0.000   3.890
 62        1.228   2.687   0.000   3.915
 63        1.224   2.604   0.000   3.828
 64        1.224   2.640   0.000   3.863
 65        1.238   2.666   0.000   3.904
 66        1.226   2.674   0.000   3.900
 67        1.224   2.654   0.000   3.878
 68        1.227   2.680   0.000   3.907
 69        1.227   2.678   0.000   3.905
 70        1.228   2.687   0.000   3.915
 71        1.223   2.606   0.000   3.829
 72        1.231   2.703   0.000   3.935
 73        1.227   2.667   0.000   3.894
------------------------------------------------
tot       60.929 113.600   0.000 174.529


 total amount of memory used by VASP on root node    90500. kBytes
========================================================================

   base      :      30000. kBytes
   nonlr-proj:      15910. kBytes
   fftplans  :       2478. kBytes
   grid      :       2306. kBytes
   one-center:         58. kBytes
   HF        :          9. kBytes
   wavefun   :      39739. kBytes

  
  
 General timing and accounting informations for this job:
 ========================================================
  
                  Total CPU time used (sec):     3992.891
                            User time (sec):     3983.927
                          System time (sec):        8.963
                         Elapsed time (sec):     3999.635
  
                   Maximum memory used (kb):      522236.
                   Average memory used (kb):           0.
  
                          Minor page faults:        50278
                          Major page faults:         1134
                 Voluntary context switches:          908
