  72  72   0   0
  0.1028018E+02  0.9287202E-09  0.9287204E-09  0.9909069E-09  0.2000000E-16
   1.0000000000000000E-004
  CAR 
 unknown system                          
     20.38630602    -14.11839533  301     11.83921096      1.00000000
    -14.118  0.0000E+00  0.0000E+00  0.0000E+00  0.0000E+00
    -14.003  0.0000E+00  0.0000E+00  0.0000E+00  0.0000E+00
    -13.888  0.0000E+00  0.0000E+00  0.0000E+00  0.0000E+00
    -13.773  0.0000E+00  0.0000E+00  0.0000E+00  0.0000E+00
    -13.658  0.0000E+00  0.0000E+00  0.0000E+00  0.0000E+00
    -13.543  0.0000E+00  0.0000E+00  0.0000E+00  0.0000E+00
    -13.428  0.0000E+00  0.0000E+00  0.0000E+00  0.0000E+00
    -13.313  0.0000E+00  0.0000E+00  0.0000E+00  0.0000E+00
    -13.198  0.0000E+00  0.0000E+00  0.0000E+00  0.0000E+00
    -13.083  0.0000E+00  0.0000E+00  0.0000E+00  0.0000E+00
    -12.968  0.0000E+00  0.0000E+00  0.0000E+00  0.0000E+00
    -12.853  0.0000E+00  0.0000E+00  0.0000E+00  0.0000E+00
    -12.738  0.0000E+00  0.0000E+00  0.0000E+00  0.0000E+00
    -12.623  0.2471E-09  0.1288E-13  0.2842E-10  0.1482E-14
    -12.508  0.2218E-02  0.1982E-02  0.2552E-03  0.2279E-03
    -12.393  0.1051E-01  0.7075E-02  0.1464E-02  0.1042E-02
    -12.278  0.4656E-02  0.8332E-02  0.2000E-02  0.2000E-02
    -12.163  0.0000E+00  0.0000E+00  0.2000E-02  0.2000E-02
    -12.048  0.0000E+00  0.0000E+00  0.2000E-02  0.2000E-02
    -11.933  0.2330E-03  0.6898E-04  0.2027E-02  0.2008E-02
    -11.818  0.2530E-02  0.2186E-02  0.2318E-02  0.2259E-02
    -11.703  0.6992E-02  0.6804E-02  0.3122E-02  0.3042E-02
    -11.588  0.5650E-02  0.3137E-02  0.3772E-02  0.3403E-02
    -11.473  0.1499E-01  0.1809E-01  0.5496E-02  0.5483E-02
    -11.358  0.6820E-02  0.6697E-02  0.6280E-02  0.6254E-02
    -11.243  0.3937E-02  0.3887E-02  0.6733E-02  0.6701E-02
    -11.128  0.7544E-02  0.7066E-02  0.7601E-02  0.7514E-02
    -11.013  0.2176E-01  0.2025E-01  0.1010E-01  0.9842E-02
    -10.898  0.1863E-01  0.1635E-01  0.1225E-01  0.1172E-01
    -10.783  0.2453E-01  0.2799E-01  0.1507E-01  0.1494E-01
    -10.668  0.5928E-02  0.7026E-02  0.1575E-01  0.1575E-01
    -10.553  0.1432E-01  0.1303E-01  0.1740E-01  0.1725E-01
    -10.438  0.1763E-01  0.1740E-01  0.1943E-01  0.1925E-01
    -10.323  0.3159E-01  0.2942E-01  0.2306E-01  0.2263E-01
    -10.208  0.2571E-01  0.2926E-01  0.2601E-01  0.2600E-01
    -10.093  0.1493E-01  0.1419E-01  0.2773E-01  0.2763E-01
     -9.978  0.4543E-01  0.4460E-01  0.3296E-01  0.3276E-01
     -9.863  0.5132E-01  0.5151E-01  0.3886E-01  0.3869E-01
     -9.748  0.2556E-01  0.2669E-01  0.4180E-01  0.4176E-01
     -9.633  0.2246E-01  0.2185E-01  0.4438E-01  0.4427E-01
     -9.518  0.7053E-01  0.7141E-01  0.5249E-01  0.5248E-01
     -9.403  0.3672E-01  0.3553E-01  0.5672E-01  0.5657E-01
     -9.288  0.5769E-01  0.5679E-01  0.6335E-01  0.6310E-01
     -9.173  0.5729E-01  0.5864E-01  0.6994E-01  0.6985E-01
     -9.058  0.1788E-01  0.1872E-01  0.7200E-01  0.7200E-01
     -8.943  0.0000E+00  0.0000E+00  0.7200E-01  0.7200E-01
     -8.828  0.0000E+00  0.0000E+00  0.7200E-01  0.7200E-01
     -8.713  0.0000E+00  0.0000E+00  0.7200E-01  0.7200E-01
     -8.598  0.0000E+00  0.0000E+00  0.7200E-01  0.7200E-01
     -8.483  0.0000E+00  0.0000E+00  0.7200E-01  0.7200E-01
     -8.368  0.0000E+00  0.0000E+00  0.7200E-01  0.7200E-01
     -8.253  0.0000E+00  0.0000E+00  0.7200E-01  0.7200E-01
     -8.138  0.0000E+00  0.0000E+00  0.7200E-01  0.7200E-01
     -8.023  0.0000E+00  0.0000E+00  0.7200E-01  0.7200E-01
     -7.908  0.0000E+00  0.0000E+00  0.7200E-01  0.7200E-01
     -7.793  0.0000E+00  0.0000E+00  0.7200E-01  0.7200E-01
     -7.678  0.0000E+00  0.0000E+00  0.7200E-01  0.7200E-01
     -7.563  0.0000E+00  0.0000E+00  0.7200E-01  0.7200E-01
     -7.447  0.0000E+00  0.0000E+00  0.7200E-01  0.7200E-01
     -7.332  0.0000E+00  0.0000E+00  0.7200E-01  0.7200E-01
     -7.217  0.0000E+00  0.0000E+00  0.7200E-01  0.7200E-01
     -7.102  0.0000E+00  0.0000E+00  0.7200E-01  0.7200E-01
     -6.987  0.0000E+00  0.0000E+00  0.7200E-01  0.7200E-01
     -6.872  0.0000E+00  0.0000E+00  0.7200E-01  0.7200E-01
     -6.757  0.0000E+00  0.0000E+00  0.7200E-01  0.7200E-01
     -6.642  0.0000E+00  0.0000E+00  0.7200E-01  0.7200E-01
     -6.527  0.0000E+00  0.0000E+00  0.7200E-01  0.7200E-01
     -6.412  0.0000E+00  0.0000E+00  0.7200E-01  0.7200E-01
     -6.297  0.0000E+00  0.0000E+00  0.7200E-01  0.7200E-01
     -6.182  0.0000E+00  0.0000E+00  0.7200E-01  0.7200E-01
     -6.067  0.0000E+00  0.0000E+00  0.7200E-01  0.7200E-01
     -5.952  0.0000E+00  0.0000E+00  0.7200E-01  0.7200E-01
     -5.837  0.0000E+00  0.0000E+00  0.7200E-01  0.7200E-01
     -5.722  0.0000E+00  0.0000E+00  0.7200E-01  0.7200E-01
     -5.607  0.0000E+00  0.0000E+00  0.7200E-01  0.7200E-01
     -5.492  0.0000E+00  0.0000E+00  0.7200E-01  0.7200E-01
     -5.377  0.0000E+00  0.0000E+00  0.7200E-01  0.7200E-01
     -5.262  0.0000E+00  0.0000E+00  0.7200E-01  0.7200E-01
     -5.147  0.0000E+00  0.0000E+00  0.7200E-01  0.7200E-01
     -5.032  0.0000E+00  0.0000E+00  0.7200E-01  0.7200E-01
     -4.917  0.0000E+00  0.0000E+00  0.7200E-01  0.7200E-01
     -4.802  0.0000E+00  0.0000E+00  0.7200E-01  0.7200E-01
     -4.687  0.0000E+00  0.0000E+00  0.7200E-01  0.7200E-01
     -4.572  0.0000E+00  0.0000E+00  0.7200E-01  0.7200E-01
     -4.457  0.0000E+00  0.0000E+00  0.7200E-01  0.7200E-01
     -4.342  0.0000E+00  0.0000E+00  0.7200E-01  0.7200E-01
     -4.227  0.0000E+00  0.0000E+00  0.7200E-01  0.7200E-01
     -4.112  0.0000E+00  0.0000E+00  0.7200E-01  0.7200E-01
     -3.997  0.0000E+00  0.0000E+00  0.7200E-01  0.7200E-01
     -3.882  0.0000E+00  0.0000E+00  0.7200E-01  0.7200E-01
     -3.767  0.0000E+00  0.0000E+00  0.7200E-01  0.7200E-01
     -3.652  0.0000E+00  0.0000E+00  0.7200E-01  0.7200E-01
     -3.537  0.0000E+00  0.0000E+00  0.7200E-01  0.7200E-01
     -3.422  0.0000E+00  0.0000E+00  0.7200E-01  0.7200E-01
     -3.307  0.0000E+00  0.0000E+00  0.7200E-01  0.7200E-01
     -3.192  0.0000E+00  0.0000E+00  0.7200E-01  0.7200E-01
     -3.077  0.0000E+00  0.0000E+00  0.7200E-01  0.7200E-01
     -2.962  0.0000E+00  0.0000E+00  0.7200E-01  0.7200E-01
     -2.847  0.0000E+00  0.0000E+00  0.7200E-01  0.7200E-01
     -2.732  0.0000E+00  0.0000E+00  0.7200E-01  0.7200E-01
     -2.617  0.0000E+00  0.0000E+00  0.7200E-01  0.7200E-01
     -2.502  0.0000E+00  0.0000E+00  0.7200E-01  0.7200E-01
     -2.387  0.1907E-06  0.5430E-16  0.7200E-01  0.7200E-01
     -2.272  0.1286E-01  0.4636E-02  0.7348E-01  0.7253E-01
     -2.157  0.2447E-02  0.9797E-02  0.7376E-01  0.7366E-01
     -2.042  0.2078E-02  0.2953E-02  0.7400E-01  0.7400E-01
     -1.927  0.0000E+00  0.2737E-05  0.7400E-01  0.7400E-01
     -1.812  0.0000E+00  0.0000E+00  0.7400E-01  0.7400E-01
     -1.697  0.4579E-12  0.0000E+00  0.7400E-01  0.7400E-01
     -1.582  0.2109E-02  0.2623E-03  0.7424E-01  0.7403E-01
     -1.467  0.6466E-04  0.1911E-02  0.7425E-01  0.7425E-01
     -1.352  0.1303E-01  0.1144E-01  0.7575E-01  0.7557E-01
     -1.237  0.1272E-01  0.1207E-01  0.7721E-01  0.7695E-01
     -1.122  0.1261E-01  0.9281E-02  0.7866E-01  0.7802E-01
     -1.007  0.2097E-01  0.2449E-01  0.8107E-01  0.8084E-01
     -0.892  0.9343E-02  0.1011E-01  0.8215E-01  0.8200E-01
     -0.777  0.2448E-01  0.9379E-02  0.8497E-01  0.8308E-01
     -0.662  0.6069E-01  0.6962E-01  0.9195E-01  0.9109E-01
     -0.547  0.2037E-01  0.1886E-01  0.9429E-01  0.9326E-01
     -0.432  0.5484E-01  0.5122E-01  0.1006E+00  0.9915E-01
     -0.317  0.2613E-01  0.3266E-01  0.1036E+00  0.1029E+00
     -0.201  0.5115E-01  0.4388E-01  0.1095E+00  0.1079E+00
     -0.086  0.2236E-01  0.3524E-01  0.1121E+00  0.1120E+00
      0.029  0.4806E-01  0.4221E-01  0.1176E+00  0.1169E+00
      0.144  0.2867E-01  0.3114E-01  0.1209E+00  0.1204E+00
      0.259  0.1402E-01  0.1592E-01  0.1225E+00  0.1223E+00
      0.374  0.2377E-01  0.2393E-01  0.1252E+00  0.1250E+00
      0.489  0.1104E-01  0.9651E-02  0.1265E+00  0.1261E+00
      0.604  0.2734E-01  0.2709E-01  0.1296E+00  0.1292E+00
      0.719  0.2130E-01  0.2052E-01  0.1321E+00  0.1316E+00
      0.834  0.1777E-01  0.2144E-01  0.1341E+00  0.1341E+00
      0.949  0.1247E-01  0.1240E-01  0.1356E+00  0.1355E+00
      1.064  0.1476E-01  0.9490E-02  0.1373E+00  0.1366E+00
      1.179  0.3247E-01  0.3231E-01  0.1410E+00  0.1403E+00
      1.294  0.4641E-01  0.4470E-01  0.1463E+00  0.1454E+00
      1.409  0.2299E-01  0.2954E-01  0.1490E+00  0.1488E+00
      1.524  0.1641E-01  0.1556E-01  0.1509E+00  0.1506E+00
      1.639  0.4022E-01  0.3499E-01  0.1555E+00  0.1547E+00
      1.754  0.2021E-01  0.2248E-01  0.1578E+00  0.1572E+00
      1.869  0.2701E-01  0.3064E-01  0.1609E+00  0.1608E+00
      1.984  0.1931E-01  0.1951E-01  0.1632E+00  0.1630E+00
      2.099  0.3437E-01  0.3114E-01  0.1671E+00  0.1666E+00
      2.214  0.4615E-01  0.4909E-01  0.1724E+00  0.1722E+00
      2.329  0.1190E-01  0.1136E-01  0.1738E+00  0.1735E+00
      2.444  0.1623E-01  0.1562E-01  0.1756E+00  0.1753E+00
      2.559  0.3986E-01  0.3846E-01  0.1802E+00  0.1798E+00
      2.674  0.4870E-01  0.5185E-01  0.1858E+00  0.1857E+00
      2.789  0.1066E-01  0.1037E-01  0.1871E+00  0.1869E+00
      2.904  0.2457E-01  0.2283E-01  0.1899E+00  0.1896E+00
      3.019  0.8283E-01  0.8086E-01  0.1994E+00  0.1989E+00
      3.134  0.5548E-01  0.6010E-01  0.2058E+00  0.2058E+00
      3.249  0.4118E-01  0.4029E-01  0.2105E+00  0.2104E+00
      3.364  0.3233E-01  0.3093E-01  0.2142E+00  0.2140E+00
      3.479  0.6507E-01  0.6601E-01  0.2217E+00  0.2215E+00
      3.594  0.5465E-01  0.5488E-01  0.2280E+00  0.2279E+00
      3.709  0.6296E-01  0.6138E-01  0.2353E+00  0.2349E+00
      3.824  0.4105E-01  0.4313E-01  0.2400E+00  0.2399E+00
      3.939  0.5261E-01  0.5256E-01  0.2460E+00  0.2459E+00
      4.054  0.8445E-01  0.8437E-01  0.2557E+00  0.2556E+00
      4.169  0.6328E-01  0.6363E-01  0.2630E+00  0.2629E+00
      4.284  0.5975E-01  0.6097E-01  0.2699E+00  0.2700E+00
      4.399  0.3056E-01  0.2953E-01  0.2734E+00  0.2734E+00
      4.514  0.5963E-01  0.6023E-01  0.2803E+00  0.2803E+00
      4.629  0.2407E-01  0.2423E-01  0.2830E+00  0.2831E+00
      4.744  0.1343E-01  0.1331E-01  0.2846E+00  0.2846E+00
      4.859  0.2065E-01  0.2051E-01  0.2870E+00  0.2870E+00
      4.974  0.6862E-02  0.6837E-02  0.2877E+00  0.2877E+00
      5.089  0.2141E-02  0.2121E-02  0.2880E+00  0.2880E+00
      5.204  0.3267E-04  0.5283E-04  0.2880E+00  0.2880E+00
      5.319  0.0000E+00  0.0000E+00  0.2880E+00  0.2880E+00
      5.434  0.0000E+00  0.0000E+00  0.2880E+00  0.2880E+00
      5.549  0.0000E+00  0.0000E+00  0.2880E+00  0.2880E+00
      5.664  0.0000E+00  0.0000E+00  0.2880E+00  0.2880E+00
      5.779  0.0000E+00  0.0000E+00  0.2880E+00  0.2880E+00
      5.894  0.0000E+00  0.0000E+00  0.2880E+00  0.2880E+00
      6.009  0.0000E+00  0.0000E+00  0.2880E+00  0.2880E+00
      6.124  0.0000E+00  0.0000E+00  0.2880E+00  0.2880E+00
      6.239  0.0000E+00  0.0000E+00  0.2880E+00  0.2880E+00
      6.354  0.0000E+00  0.0000E+00  0.2880E+00  0.2880E+00
      6.469  0.0000E+00  0.0000E+00  0.2880E+00  0.2880E+00
      6.584  0.0000E+00  0.0000E+00  0.2880E+00  0.2880E+00
      6.699  0.0000E+00  0.0000E+00  0.2880E+00  0.2880E+00
      6.814  0.0000E+00  0.0000E+00  0.2880E+00  0.2880E+00
      6.929  0.0000E+00  0.0000E+00  0.2880E+00  0.2880E+00
      7.044  0.0000E+00  0.0000E+00  0.2880E+00  0.2880E+00
      7.160  0.0000E+00  0.0000E+00  0.2880E+00  0.2880E+00
      7.275  0.0000E+00  0.0000E+00  0.2880E+00  0.2880E+00
      7.390  0.0000E+00  0.0000E+00  0.2880E+00  0.2880E+00
      7.505  0.0000E+00  0.0000E+00  0.2880E+00  0.2880E+00
      7.620  0.0000E+00  0.0000E+00  0.2880E+00  0.2880E+00
      7.735  0.0000E+00  0.0000E+00  0.2880E+00  0.2880E+00
      7.850  0.0000E+00  0.0000E+00  0.2880E+00  0.2880E+00
      7.965  0.0000E+00  0.0000E+00  0.2880E+00  0.2880E+00
      8.080  0.0000E+00  0.0000E+00  0.2880E+00  0.2880E+00
      8.195  0.0000E+00  0.0000E+00  0.2880E+00  0.2880E+00
      8.310  0.0000E+00  0.0000E+00  0.2880E+00  0.2880E+00
      8.425  0.0000E+00  0.0000E+00  0.2880E+00  0.2880E+00
      8.540  0.0000E+00  0.0000E+00  0.2880E+00  0.2880E+00
      8.655  0.0000E+00  0.0000E+00  0.2880E+00  0.2880E+00
      8.770  0.0000E+00  0.0000E+00  0.2880E+00  0.2880E+00
      8.885  0.0000E+00  0.0000E+00  0.2880E+00  0.2880E+00
      9.000  0.0000E+00  0.0000E+00  0.2880E+00  0.2880E+00
      9.115  0.0000E+00  0.0000E+00  0.2880E+00  0.2880E+00
      9.230  0.0000E+00  0.0000E+00  0.2880E+00  0.2880E+00
      9.345  0.0000E+00  0.0000E+00  0.2880E+00  0.2880E+00
      9.460  0.0000E+00  0.0000E+00  0.2880E+00  0.2880E+00
      9.575  0.0000E+00  0.0000E+00  0.2880E+00  0.2880E+00
      9.690  0.0000E+00  0.0000E+00  0.2880E+00  0.2880E+00
      9.805  0.0000E+00  0.0000E+00  0.2880E+00  0.2880E+00
      9.920  0.0000E+00  0.0000E+00  0.2880E+00  0.2880E+00
     10.035  0.0000E+00  0.0000E+00  0.2880E+00  0.2880E+00
     10.150  0.0000E+00  0.0000E+00  0.2880E+00  0.2880E+00
     10.265  0.0000E+00  0.0000E+00  0.2880E+00  0.2880E+00
     10.380  0.0000E+00  0.0000E+00  0.2880E+00  0.2880E+00
     10.495  0.0000E+00  0.0000E+00  0.2880E+00  0.2880E+00
     10.610  0.0000E+00  0.0000E+00  0.2880E+00  0.2880E+00
     10.725  0.0000E+00  0.0000E+00  0.2880E+00  0.2880E+00
     10.840  0.0000E+00  0.0000E+00  0.2880E+00  0.2880E+00
     10.955  0.1274E-11  0.0000E+00  0.2880E+00  0.2880E+00
     11.070  0.2130E-02  0.1300E-11  0.2882E+00  0.2880E+00
     11.185  0.4399E-04  0.2130E-02  0.2883E+00  0.2882E+00
     11.300  0.0000E+00  0.4365E-04  0.2883E+00  0.2883E+00
     11.415  0.0000E+00  0.0000E+00  0.2883E+00  0.2883E+00
     11.530  0.0000E+00  0.0000E+00  0.2883E+00  0.2883E+00
     11.645  0.8865E-08  0.0000E+00  0.2883E+00  0.2883E+00
     11.760  0.1085E-01  0.0000E+00  0.2895E+00  0.2883E+00
     11.875  0.2231E-02  0.8240E-03  0.2898E+00  0.2883E+00
     11.990  0.1271E-01  0.1497E-01  0.2912E+00  0.2901E+00
     12.105  0.2923E-03  0.3805E-02  0.2913E+00  0.2905E+00
     12.220  0.1078E-01  0.7011E-02  0.2925E+00  0.2913E+00
     12.335  0.6392E-02  0.8164E-02  0.2932E+00  0.2923E+00
     12.450  0.1229E-01  0.6864E-02  0.2946E+00  0.2930E+00
     12.565  0.4776E-01  0.1633E-01  0.3001E+00  0.2949E+00
     12.680  0.4625E-01  0.4250E-01  0.3055E+00  0.2998E+00
     12.795  0.3967E-01  0.5672E-01  0.3100E+00  0.3063E+00
     12.910  0.2908E-01  0.3547E-01  0.3134E+00  0.3104E+00
     13.025  0.2255E-01  0.3504E-01  0.3160E+00  0.3144E+00
     13.140  0.2224E-01  0.1592E-01  0.3185E+00  0.3163E+00
     13.255  0.3430E-01  0.3087E-01  0.3225E+00  0.3198E+00
     13.370  0.9072E-02  0.3197E-01  0.3235E+00  0.3235E+00
     13.485  0.1267E-03  0.1036E-04  0.3235E+00  0.3235E+00
     13.600  0.3032E-01  0.6518E-02  0.3270E+00  0.3242E+00
     13.715  0.4129E-01  0.4665E-01  0.3318E+00  0.3296E+00
     13.830  0.2334E-01  0.3377E-01  0.3344E+00  0.3335E+00
     13.945  0.1701E-01  0.1902E-01  0.3364E+00  0.3357E+00
     14.060  0.3029E-01  0.1580E-01  0.3399E+00  0.3375E+00
     14.175  0.4524E-01  0.4309E-01  0.3451E+00  0.3425E+00
     14.290  0.3061E-01  0.3488E-01  0.3486E+00  0.3465E+00
     14.405  0.2529E-01  0.3657E-01  0.3515E+00  0.3507E+00
     14.521  0.2108E-01  0.7584E-02  0.3539E+00  0.3516E+00
     14.636  0.1253E-02  0.2128E-01  0.3541E+00  0.3540E+00
     14.751  0.2782E-02  0.2191E-02  0.3544E+00  0.3542E+00
     14.866  0.1177E-01  0.1302E-01  0.3557E+00  0.3557E+00
     14.981  0.1985E-01  0.3525E-02  0.3580E+00  0.3562E+00
     15.096  0.1276E-01  0.2869E-01  0.3595E+00  0.3595E+00
     15.211  0.1049E-01  0.4886E-02  0.3607E+00  0.3600E+00
     15.326  0.3119E-02  0.8412E-02  0.3611E+00  0.3610E+00
     15.441  0.1245E-01  0.9386E-02  0.3625E+00  0.3621E+00
     15.556  0.7900E-02  0.8043E-02  0.3634E+00  0.3630E+00
     15.671  0.1385E-01  0.1622E-01  0.3650E+00  0.3649E+00
     15.786  0.1397E-01  0.7769E-02  0.3666E+00  0.3657E+00
     15.901  0.2667E-01  0.1637E-01  0.3697E+00  0.3676E+00
     16.016  0.6144E-01  0.5384E-01  0.3767E+00  0.3738E+00
     16.131  0.3189E-01  0.4730E-01  0.3804E+00  0.3793E+00
     16.246  0.5257E-01  0.4598E-01  0.3865E+00  0.3845E+00
     16.361  0.4807E-02  0.2132E-01  0.3870E+00  0.3870E+00
     16.476  0.1938E-01  0.1318E-01  0.3892E+00  0.3885E+00
     16.591  0.5865E-01  0.4170E-01  0.3960E+00  0.3933E+00
     16.706  0.5587E-01  0.6871E-01  0.4024E+00  0.4012E+00
     16.821  0.3650E-01  0.3155E-01  0.4066E+00  0.4048E+00
     16.936  0.3498E-01  0.4076E-01  0.4106E+00  0.4095E+00
     17.051  0.3531E-01  0.3218E-01  0.4147E+00  0.4132E+00
     17.166  0.5191E-01  0.5552E-01  0.4207E+00  0.4196E+00
     17.281  0.1603E-01  0.2101E-01  0.4225E+00  0.4220E+00
     17.396  0.3612E-02  0.6200E-02  0.4229E+00  0.4228E+00
     17.511  0.3083E-01  0.2214E-01  0.4265E+00  0.4253E+00
     17.626  0.1255E-01  0.2135E-01  0.4279E+00  0.4278E+00
     17.741  0.9030E-02  0.5964E-02  0.4290E+00  0.4284E+00
     17.856  0.1786E-01  0.1275E-01  0.4310E+00  0.4299E+00
     17.971  0.1656E-01  0.1981E-01  0.4329E+00  0.4322E+00
     18.086  0.1435E-01  0.1390E-01  0.4346E+00  0.4338E+00
     18.201  0.1791E-01  0.1893E-01  0.4366E+00  0.4360E+00
     18.316  0.2081E-01  0.2311E-01  0.4390E+00  0.4386E+00
     18.431  0.2993E-01  0.2950E-01  0.4425E+00  0.4420E+00
     18.546  0.2610E-01  0.2793E-01  0.4455E+00  0.4452E+00
     18.661  0.7460E-02  0.6503E-02  0.4463E+00  0.4460E+00
     18.776  0.1430E-01  0.1336E-01  0.4480E+00  0.4475E+00
     18.891  0.3375E-03  0.4283E-02  0.4480E+00  0.4480E+00
     19.006  0.0000E+00  0.0000E+00  0.4480E+00  0.4480E+00
     19.121  0.0000E+00  0.0000E+00  0.4480E+00  0.4480E+00
     19.236  0.0000E+00  0.0000E+00  0.4480E+00  0.4480E+00
     19.351  0.0000E+00  0.0000E+00  0.4480E+00  0.4480E+00
     19.466  0.0000E+00  0.0000E+00  0.4480E+00  0.4480E+00
     19.581  0.0000E+00  0.0000E+00  0.4480E+00  0.4480E+00
     19.696  0.0000E+00  0.0000E+00  0.4480E+00  0.4480E+00
     19.811  0.0000E+00  0.0000E+00  0.4480E+00  0.4480E+00
     19.926  0.0000E+00  0.0000E+00  0.4480E+00  0.4480E+00
     20.041  0.0000E+00  0.0000E+00  0.4480E+00  0.4480E+00
     20.156  0.0000E+00  0.0000E+00  0.4480E+00  0.4480E+00
     20.271  0.0000E+00  0.0000E+00  0.4480E+00  0.4480E+00
     20.386  0.0000E+00  0.0000E+00  0.4480E+00  0.4480E+00
