   72   72  500    2
  0.1028018E+02  0.9287202E-09  0.9287204E-09  0.9909069E-09  0.2000000E-16
   1.0000000000000000E-004
  CAR 
 unknown system                          
    289      8    224

  0.1262379E-14  0.1262379E-14  0.1262379E-14  0.1250000E+00
    1      -12.550000    -12.527280   1.000000   1.000000
    2      -11.702634    -11.689437   1.000000   1.000000
    3      -11.264145    -11.255069   1.000000   1.000000
    4      -11.069501    -11.058920   1.000000   1.000000
    5      -10.977352    -10.961850   1.000000   1.000000
    6      -10.977007    -10.961568   1.000000   1.000000
    7      -10.786999    -10.778717   1.000000   1.000000
    8      -10.786418    -10.778145   1.000000   1.000000
    9      -10.755089    -10.746898   1.000000   1.000000
   10      -10.421600    -10.415001   1.000000   1.000000
   11      -10.359594    -10.354073   1.000000   1.000000
   12      -10.322610    -10.313015   1.000000   1.000000
   13      -10.322496    -10.312926   1.000000   1.000000
   14      -10.087855    -10.082134   1.000000   1.000000
   15      -10.087233    -10.081523   1.000000   1.000000
   16      -10.071110    -10.065966   1.000000   1.000000
   17      -10.070403    -10.065265   1.000000   1.000000
   18      -10.047203    -10.040566   1.000000   1.000000
   19      -10.046698    -10.040067   1.000000   1.000000
   20      -10.040753    -10.033740   1.000000   1.000000
   21      -10.015045    -10.010383   1.000000   1.000000
   22       -9.859884     -9.856869   1.000000   1.000000
   23       -9.605664     -9.598296   1.000000   1.000000
   24       -9.605344     -9.597992   1.000000   1.000000
   25       -9.540066     -9.538069   1.000000   1.000000
   26       -9.412396     -9.411179   1.000000   1.000000
   27       -9.366032     -9.361847   1.000000   1.000000
   28       -9.354714     -9.350351   1.000000   1.000000
   29       -9.337725     -9.337098   1.000000   1.000000
   30       -9.337375     -9.336744   1.000000   1.000000
   31       -9.320665     -9.319250   1.000000   1.000000
   32       -9.255853     -9.253051   1.000000   1.000000
   33       -9.255647     -9.252840   1.000000   1.000000
   34       -9.202391     -9.199799   1.000000   1.000000
   35       -9.201967     -9.199367   1.000000   1.000000
   36       -9.170045     -9.167847   1.000000   1.000000
   37       -2.206921     -2.161843   1.000000   1.000000
   38       -1.608372     -1.565118   1.000000   1.000000
   39       -0.783593     -0.745539   1.000000   1.000000
   40       -0.782900     -0.744782   1.000000   1.000000
   41       -0.419706     -0.399883   1.000000   1.000000
   42       -0.418997     -0.399190   1.000000   1.000000
   43       -0.398278     -0.367232   1.000000   1.000000
   44       -0.335971     -0.306607   1.000000   1.000000
   45       -0.335464     -0.306180   1.000000   1.000000
   46       -0.315544     -0.299708   1.000000   1.000000
   47       -0.315058     -0.297482   1.000000   1.000000
   48       -0.265146     -0.247416   1.000000   1.000000
   49       -0.264255     -0.246790   1.000000   1.000000
   50       -0.260029     -0.237784   1.000000   1.000000
   51       -0.258848     -0.237502   1.000000   1.000000
   52       -0.242688     -0.223979   1.000000   1.000000
   53       -0.217393     -0.199000   1.000000   1.000000
   54       -0.215633     -0.198690   1.000000   1.000000
   55       -0.215346     -0.198371   1.000000   1.000000
   56       -0.195562     -0.177818   1.000000   1.000000
   57       -0.063388     -0.050179   1.000000   1.000000
   58        0.003308      0.017734   1.000000   1.000000
   59        0.003750      0.018107   1.000000   1.000000
   60        0.048609      0.066031   1.000000   1.000000
   61        0.049501      0.066875   1.000000   1.000000
   62        0.073616      0.092935   1.000000   1.000000
   63        0.074236      0.102406   1.000000   1.000000
   64        0.076755      0.102917   1.000000   1.000000
   65        0.142632      0.168076   1.000000   1.000000
   66        0.143122      0.168581   1.000000   1.000000
   67        0.170626      0.194935   1.000000   1.000000
   68        0.626361      0.636641   1.000000   1.000000
   69        0.628165      0.655136   1.000000   1.000000
   70        0.628747      0.655788   1.000000   1.000000
   71        0.749308      0.771296   1.000000   1.000000
   72        0.749542      0.771558   1.000000   1.000000
   73        0.842189      0.848021   1.000000   1.000000
   74        0.842848      0.848744   1.000000   1.000000
   75        0.891717      0.903249   1.000000   1.000000
   76        1.248222      1.260114   1.000000   1.000000
   77        1.280482      1.288075   1.000000   1.000000
   78        1.280765      1.288356   1.000000   1.000000
   79        1.285519      1.305661   1.000000   1.000000
   80        1.331481      1.350738   1.000000   1.000000
   81        1.357665      1.365964   1.000000   1.000000
   82        1.357991      1.366272   1.000000   1.000000
   83        1.406429      1.414359   1.000000   1.000000
   84        2.176433      2.187389   1.000000   1.000000
   85        2.188747      2.193019   1.000000   1.000000
   86        2.189097      2.193369   1.000000   1.000000
   87        2.318919      2.326603   1.000000   1.000000
   88        2.319168      2.326849   1.000000   1.000000
   89        2.417818      2.427432   1.000000   1.000000
   90        2.657545      2.660721   1.000000   1.000000
   91        2.658054      2.661196   1.000000   1.000000
   92        2.827811      2.833750   1.000000   1.000000
   93        2.932141      2.936617   1.000000   1.000000
   94        3.002432      3.007130   1.000000   1.000000
   95        3.002776      3.007481   1.000000   1.000000
   96        3.016131      3.019857   1.000000   1.000000
   97        3.156048      3.164608   1.000000   1.000000
   98        3.220416      3.227448   1.000000   1.000000
   99        3.221157      3.228198   1.000000   1.000000
  100        3.295252      3.302147   1.000000   1.000000
  101        3.295808      3.302690   1.000000   1.000000
  102        3.345970      3.352220   1.000000   1.000000
  103        3.346036      3.352289   1.000000   1.000000
  104        3.373412      3.379874   1.000000   1.000000
  105        3.377381      3.383613   1.000000   1.000000
  106        3.378102      3.384334   1.000000   1.000000
  107        3.398827      3.405732   1.000000   1.000000
  108        3.427970      3.429376   1.000000   1.000000
  109        3.428839      3.430226   1.000000   1.000000
  110        3.579382      3.580832   1.000000   1.000000
  111        3.579749      3.581193   1.000000   1.000000
  112        3.590043      3.592073   1.000000   1.000000
  113        3.630771      3.632309   1.000000   1.000000
  114        3.667739      3.670628   1.000000   1.000000
  115        3.668510      3.671400   1.000000   1.000000
  116        3.680921      3.681957   1.000000   1.000000
  117        3.687756      3.688632   1.000000   1.000000
  118        3.688075      3.688940   1.000000   1.000000
  119        3.692468      3.693123   1.000000   1.000000
  120        3.919758      3.925140   1.000000   1.000000
  121        3.998641      4.002675   1.000000   1.000000
  122        3.999266      4.003251   1.000000   1.000000
  123        4.078554      4.079218   1.000000   1.000000
  124        4.078622      4.079340   1.000000   1.000000
  125        4.139825      4.141733   1.000000   1.000000
  126        4.140365      4.146013   1.000000   1.000000
  127        4.140567      4.146238   1.000000   1.000000
  128        4.172297      4.172581   1.000000   1.000000
  129        4.172474      4.172802   1.000000   1.000000
  130        4.173322      4.179072   1.000000   1.000000
  131        4.198802      4.198676   1.000000   1.000000
  132        4.303817      4.300959   1.000000   1.000000
  133        4.304239      4.301382   1.000000   1.000000
  134        4.427000      4.424645   1.000000   1.000000
  135        4.438881      4.437260   1.000000   1.000000
  136        4.439356      4.437748   1.000000   1.000000
  137        4.462684      4.461489   1.000000   1.000000
  138        4.463081      4.461883   1.000000   1.000000
  139        4.495451      4.491559   1.000000   1.000000
  140        4.495797      4.494265   1.000000   1.000000
  141        4.496415      4.494916   1.000000   1.000000
  142        4.837539      4.836092   1.000000   1.000000
  143        4.838738      4.837293   1.000000   1.000000
  144        5.058544      5.061334   1.000000   1.000000
  145       11.041062     11.156032   1.000000   1.000000
  146       11.710194     11.887568   1.000000   0.000315
  147       11.710413     11.887749   1.000000   0.000300
  148       12.190204     12.386352   0.000000   0.000000
  149       12.657814     12.793485   0.000000   0.000000
  150       12.659560     12.800224   0.000000   0.000000
  151       12.713617     12.801720   0.000000   0.000000
  152       12.821827     12.908331   0.000000   0.000000
  153       12.823306     12.909752   0.000000   0.000000
  154       12.833949     12.924669   0.000000   0.000000
  155       12.834866     12.925317   0.000000   0.000000
  156       12.873133     12.952466   0.000000   0.000000
  157       12.895427     12.969640   0.000000   0.000000
  158       12.895997     12.970400   0.000000   0.000000
  159       12.913873     12.986789   0.000000   0.000000
  160       13.112383     13.161103   0.000000   0.000000
  161       13.180592     13.234352   0.000000   0.000000
  162       13.181152     13.234703   0.000000   0.000000
  163       13.245505     13.304748   0.000000   0.000000
  164       13.277471     13.326342   0.000000   0.000000
  165       13.278113     13.326839   0.000000   0.000000
  166       13.511371     13.588802   0.000000   0.000000
  167       13.544662     13.609602   0.000000   0.000000
  168       13.626523     13.709735   0.000000   0.000000
  169       13.627839     13.711048   0.000000   0.000000
  170       13.667475     13.713769   0.000000   0.000000
  171       13.735980     13.821837   0.000000   0.000000
  172       13.738033     13.824027   0.000000   0.000000
  173       13.747340     13.826678   0.000000   0.000000
  174       13.825767     13.846661   0.000000   0.000000
  175       14.435553     14.538481   0.000000   0.000000
  176       14.435944     14.538631   0.000000   0.000000
  177       14.481348     14.577956   0.000000   0.000000
  178       14.481463     14.578420   0.000000   0.000000
  179       14.642697     14.690655   0.000000   0.000000
  180       14.965359     15.004549   0.000000   0.000000
  181       14.965767     15.004944   0.000000   0.000000
  182       15.003983     15.054201   0.000000   0.000000
  183       15.142775     15.194761   0.000000   0.000000
  184       15.144501     15.196543   0.000000   0.000000
  185       15.158346     15.218281   0.000000   0.000000
  186       15.190915     15.237327   0.000000   0.000000
  187       15.191720     15.238279   0.000000   0.000000
  188       15.264607     15.305092   0.000000   0.000000
  189       15.597150     15.660287   0.000000   0.000000
  190       15.597316     15.660447   0.000000   0.000000
  191       16.543781     16.570956   0.000000   0.000000
  192       16.661074     16.712831   0.000000   0.000000
  193       16.711012     16.743412   0.000000   0.000000
  194       16.711716     16.744107   0.000000   0.000000
  195       16.814592     16.846144   0.000000   0.000000
  196       16.815152     16.846664   0.000000   0.000000
  197       16.838370     16.867100   0.000000   0.000000
  198       16.911296     16.934087   0.000000   0.000000
  199       16.911347     16.934195   0.000000   0.000000
  200       16.935580     16.959115   0.000000   0.000000
  201       16.936112     16.959584   0.000000   0.000000
  202       16.940160     16.960558   0.000000   0.000000
  203       16.978131     17.013703   0.000000   0.000000
  204       17.010917     17.043033   0.000000   0.000000
  205       17.131439     17.152742   0.000000   0.000000
  206       17.132137     17.153441   0.000000   0.000000
  207       17.620494     17.656733   0.000000   0.000000
  208       17.697083     17.728119   0.000000   0.000000
  209       17.697542     17.728584   0.000000   0.000000
  210       17.706312     17.757298   0.000000   0.000000
  211       17.781797     17.813458   0.000000   0.000000
  212       17.823259     17.865128   0.000000   0.000000
  213       17.847577     17.878111   0.000000   0.000000
  214       17.848002     17.878490   0.000000   0.000000
  215       18.049100     18.101510   0.000000   0.000000
  216       18.049678     18.102300   0.000000   0.000000
  217       18.234825     18.305197   0.000000   0.000000
  218       18.477389     18.527135   0.000000   0.000000
  219       18.478202     18.528110   0.000000   0.000000
  220       18.697261     18.743176   0.000000   0.000000
  221       18.730190     18.768128   0.000000   0.000000
  222       18.730412     18.769288   0.000000   0.000000
  223       18.732250     18.771014   0.000000   0.000000
  224       18.761687     18.817911   0.000000   0.000000

  0.5000000E+00  0.1222218E-14  0.1262379E-14  0.1250000E+00
    1      -12.425615    -12.401129   1.000000   1.000000
    2      -11.799047    -11.786270   1.000000   1.000000
    3      -11.419664    -11.408859   1.000000   1.000000
    4      -11.177796    -11.164418   1.000000   1.000000
    5      -11.040436    -11.030233   1.000000   1.000000
    6      -11.000072    -10.991560   1.000000   1.000000
    7      -10.901565    -10.890311   1.000000   1.000000
    8      -10.843732    -10.836369   1.000000   1.000000
    9      -10.507058    -10.494390   1.000000   1.000000
   10      -10.461015    -10.454448   1.000000   1.000000
   11      -10.410797    -10.403090   1.000000   1.000000
   12      -10.329346    -10.316753   1.000000   1.000000
   13      -10.300244    -10.294050   1.000000   1.000000
   14      -10.177560    -10.171626   1.000000   1.000000
   15      -10.169115    -10.161773   1.000000   1.000000
   16      -10.066807    -10.060976   1.000000   1.000000
   17      -10.006962    -10.001750   1.000000   1.000000
   18       -9.895222     -9.890890   1.000000   1.000000
   19       -9.810201     -9.805874   1.000000   1.000000
   20       -9.778026     -9.773012   1.000000   1.000000
   21       -9.725814     -9.722289   1.000000   1.000000
   22       -9.610910     -9.607122   1.000000   1.000000
   23       -9.606291     -9.602756   1.000000   1.000000
   24       -9.597727     -9.595234   1.000000   1.000000
   25       -9.576074     -9.571342   1.000000   1.000000
   26       -9.572947     -9.570665   1.000000   1.000000
   27       -9.566983     -9.563793   1.000000   1.000000
   28       -9.563864     -9.560170   1.000000   1.000000
   29       -9.560125     -9.554227   1.000000   1.000000
   30       -9.344393     -9.342054   1.000000   1.000000
   31       -9.337508     -9.335195   1.000000   1.000000
   32       -9.269805     -9.266884   1.000000   1.000000
   33       -9.197478     -9.195152   1.000000   1.000000
   34       -9.171458     -9.168884   1.000000   1.000000
   35       -9.146447     -9.143895   1.000000   1.000000
   36       -9.139075     -9.136287   1.000000   1.000000
   37       -2.330056     -2.278355   1.000000   1.000000
   38       -1.411896     -1.369036   1.000000   1.000000
   39       -1.296738     -1.272795   1.000000   1.000000
   40       -1.161488     -1.132420   1.000000   1.000000
   41       -1.138152     -1.112012   1.000000   1.000000
   42       -1.060638     -1.025695   1.000000   1.000000
   43       -1.045692     -1.022651   1.000000   1.000000
   44       -0.784508     -0.763778   1.000000   1.000000
   45       -0.775939     -0.756974   1.000000   1.000000
   46       -0.701516     -0.679732   1.000000   1.000000
   47       -0.697063     -0.677493   1.000000   1.000000
   48       -0.688324     -0.669312   1.000000   1.000000
   49       -0.667085     -0.649497   1.000000   1.000000
   50       -0.558591     -0.540480   1.000000   1.000000
   51       -0.535894     -0.519490   1.000000   1.000000
   52       -0.488298     -0.465824   1.000000   1.000000
   53       -0.462424     -0.440912   1.000000   1.000000
   54       -0.440064     -0.411783   1.000000   1.000000
   55       -0.299703     -0.268402   1.000000   1.000000
   56        0.161077      0.185185   1.000000   1.000000
   57        0.269430      0.288434   1.000000   1.000000
   58        0.276604      0.291529   1.000000   1.000000
   59        0.331782      0.351589   1.000000   1.000000
   60        0.346839      0.363627   1.000000   1.000000
   61        0.514656      0.523955   1.000000   1.000000
   62        0.579325      0.588138   1.000000   1.000000
   63        0.683366      0.694164   1.000000   1.000000
   64        0.708520      0.717532   1.000000   1.000000
   65        0.745681      0.768467   1.000000   1.000000
   66        0.870520      0.888456   1.000000   1.000000
   67        1.073677      1.095279   1.000000   1.000000
   68        1.086177      1.102417   1.000000   1.000000
   69        1.138791      1.161127   1.000000   1.000000
   70        1.157640      1.179036   1.000000   1.000000
   71        1.189904      1.208769   1.000000   1.000000
   72        1.193787      1.211649   1.000000   1.000000
   73        1.201923      1.217249   1.000000   1.000000
   74        1.256988      1.272368   1.000000   1.000000
   75        1.274747      1.288089   1.000000   1.000000
   76        1.304777      1.316724   1.000000   1.000000
   77        1.320925      1.334489   1.000000   1.000000
   78        1.632017      1.645946   1.000000   1.000000
   79        1.815076      1.827801   1.000000   1.000000
   80        1.850304      1.861742   1.000000   1.000000
   81        1.941790      1.951998   1.000000   1.000000
   82        2.045499      2.053422   1.000000   1.000000
   83        2.058924      2.066368   1.000000   1.000000
   84        2.096140      2.106862   1.000000   1.000000
   85        2.097944      2.111490   1.000000   1.000000
   86        2.122705      2.133155   1.000000   1.000000
   87        2.142323      2.154093   1.000000   1.000000
   88        2.147574      2.158421   1.000000   1.000000
   89        2.153732      2.166012   1.000000   1.000000
   90        2.460524      2.468433   1.000000   1.000000
   91        2.498513      2.507337   1.000000   1.000000
   92        2.567172      2.572944   1.000000   1.000000
   93        2.739278      2.746662   1.000000   1.000000
   94        2.910974      2.917218   1.000000   1.000000
   95        2.953244      2.959927   1.000000   1.000000
   96        2.979501      2.984613   1.000000   1.000000
   97        2.996276      3.001724   1.000000   1.000000
   98        3.080584      3.083593   1.000000   1.000000
   99        3.087047      3.100703   1.000000   1.000000
  100        3.191039      3.196735   1.000000   1.000000
  101        3.211631      3.216994   1.000000   1.000000
  102        3.252222      3.257354   1.000000   1.000000
  103        3.318262      3.325798   1.000000   1.000000
  104        3.343484      3.347546   1.000000   1.000000
  105        3.375318      3.382989   1.000000   1.000000
  106        3.386107      3.390584   1.000000   1.000000
  107        3.410724      3.415303   1.000000   1.000000
  108        3.413885      3.418638   1.000000   1.000000
  109        3.446728      3.449280   1.000000   1.000000
  110        3.467582      3.469396   1.000000   1.000000
  111        3.469537      3.474180   1.000000   1.000000
  112        3.496186      3.499995   1.000000   1.000000
  113        3.502273      3.506874   1.000000   1.000000
  114        3.563549      3.567928   1.000000   1.000000
  115        3.569516      3.571257   1.000000   1.000000
  116        3.572584      3.575715   1.000000   1.000000
  117        3.601823      3.605208   1.000000   1.000000
  118        3.612428      3.615144   1.000000   1.000000
  119        3.663907      3.665865   1.000000   1.000000
  120        3.665771      3.668596   1.000000   1.000000
  121        3.699807      3.704659   1.000000   1.000000
  122        3.706690      3.710910   1.000000   1.000000
  123        3.709620      3.713585   1.000000   1.000000
  124        3.876939      3.880421   1.000000   1.000000
  125        3.898620      3.901020   1.000000   1.000000
  126        3.929184      3.931181   1.000000   1.000000
  127        3.965519      3.967133   1.000000   1.000000
  128        3.965935      3.968156   1.000000   1.000000
  129        3.971038      3.972862   1.000000   1.000000
  130        3.992392      3.994380   1.000000   1.000000
  131        4.000056      4.001866   1.000000   1.000000
  132        4.046073      4.044324   1.000000   1.000000
  133        4.059810      4.059424   1.000000   1.000000
  134        4.061161      4.060809   1.000000   1.000000
  135        4.131250      4.131209   1.000000   1.000000
  136        4.178738      4.179163   1.000000   1.000000
  137        4.198701      4.198422   1.000000   1.000000
  138        4.284225      4.282043   1.000000   1.000000
  139        4.365128      4.368113   1.000000   1.000000
  140        4.398882      4.401440   1.000000   1.000000
  141        4.700283      4.697674   1.000000   1.000000
  142        4.774709      4.772484   1.000000   1.000000
  143        4.824377      4.826898   1.000000   1.000000
  144        4.907604      4.909666   1.000000   1.000000
  145       11.966289     12.140672   0.000000   0.000000
  146       12.166426     12.249223   0.000000   0.000000
  147       12.360241     12.461065   0.000000   0.000000
  148       12.456941     12.547811   0.000000   0.000000
  149       12.463412     12.630634   0.000000   0.000000
  150       12.499304     12.637939   0.000000   0.000000
  151       12.563727     12.699031   0.000000   0.000000
  152       12.596625     12.733444   0.000000   0.000000
  153       12.651996     12.734476   0.000000   0.000000
  154       12.701713     12.784260   0.000000   0.000000
  155       13.031894     13.134364   0.000000   0.000000
  156       13.104115     13.190401   0.000000   0.000000
  157       13.128870     13.224780   0.000000   0.000000
  158       13.138224     13.236727   0.000000   0.000000
  159       13.176229     13.261237   0.000000   0.000000
  160       13.186222     13.264314   0.000000   0.000000
  161       13.247626     13.323277   0.000000   0.000000
  162       13.250850     13.326220   0.000000   0.000000
  163       13.578058     13.678537   0.000000   0.000000
  164       13.717331     13.797371   0.000000   0.000000
  165       13.726595     13.810032   0.000000   0.000000
  166       13.747792     13.835194   0.000000   0.000000
  167       13.859022     13.924819   0.000000   0.000000
  168       13.958104     14.024107   0.000000   0.000000
  169       14.004700     14.067054   0.000000   0.000000
  170       14.043576     14.109532   0.000000   0.000000
  171       14.077848     14.133075   0.000000   0.000000
  172       14.086613     14.140747   0.000000   0.000000
  173       14.135574     14.199432   0.000000   0.000000
  174       14.250855     14.305114   0.000000   0.000000
  175       14.306961     14.357272   0.000000   0.000000
  176       14.321035     14.370364   0.000000   0.000000
  177       14.490174     14.586032   0.000000   0.000000
  178       14.500591     14.596716   0.000000   0.000000
  179       14.793193     14.827352   0.000000   0.000000
  180       14.970070     14.988859   0.000000   0.000000
  181       15.359370     15.402345   0.000000   0.000000
  182       15.594699     15.646184   0.000000   0.000000
  183       15.731730     15.772131   0.000000   0.000000
  184       15.921998     15.962550   0.000000   0.000000
  185       15.945343     15.984796   0.000000   0.000000
  186       15.970754     16.012615   0.000000   0.000000
  187       16.011968     16.075215   0.000000   0.000000
  188       16.055664     16.092054   0.000000   0.000000
  189       16.199512     16.248091   0.000000   0.000000
  190       16.246435     16.301658   0.000000   0.000000
  191       16.394902     16.431918   0.000000   0.000000
  192       16.396560     16.440138   0.000000   0.000000
  193       16.485903     16.545285   0.000000   0.000000
  194       16.511552     16.557763   0.000000   0.000000
  195       16.522400     16.559989   0.000000   0.000000
  196       16.531305     16.565261   0.000000   0.000000
  197       16.553916     16.594911   0.000000   0.000000
  198       16.569884     16.607345   0.000000   0.000000
  199       16.597009     16.633151   0.000000   0.000000
  200       16.598742     16.640442   0.000000   0.000000
  201       16.608542     16.648443   0.000000   0.000000
  202       16.626206     16.658530   0.000000   0.000000
  203       16.634618     16.676547   0.000000   0.000000
  204       16.674808     16.704250   0.000000   0.000000
  205       16.700507     16.725666   0.000000   0.000000
  206       16.810208     16.834451   0.000000   0.000000
  207       16.811246     16.836201   0.000000   0.000000
  208       16.861733     16.888468   0.000000   0.000000
  209       16.868160     16.890682   0.000000   0.000000
  210       17.059238     17.100455   0.000000   0.000000
  211       17.113244     17.153772   0.000000   0.000000
  212       17.407859     17.443801   0.000000   0.000000
  213       17.423147     17.453240   0.000000   0.000000
  214       17.476996     17.505029   0.000000   0.000000
  215       17.513545     17.539371   0.000000   0.000000
  216       17.750025     17.787517   0.000000   0.000000
  217       17.866590     17.903978   0.000000   0.000000
  218       17.968791     18.022070   0.000000   0.000000
  219       18.088792     18.134016   0.000000   0.000000
  220       18.164950     18.209414   0.000000   0.000000
  221       18.215985     18.256504   0.000000   0.000000
  222       18.354684     18.395909   0.000000   0.000000
  223       18.358264     18.406013   0.000000   0.000000
  224       18.473686     18.516037   0.000000   0.000000

  0.1262379E-14  0.5000000E+00  0.1262379E-14  0.1250000E+00
    1      -12.425560    -12.401077   1.000000   1.000000
    2      -11.799248    -11.786454   1.000000   1.000000
    3      -11.419687    -11.408889   1.000000   1.000000
    4      -11.177850    -11.164488   1.000000   1.000000
    5      -11.040380    -11.030196   1.000000   1.000000
    6      -10.999527    -10.991019   1.000000   1.000000
    7      -10.901508    -10.890228   1.000000   1.000000
    8      -10.844172    -10.836802   1.000000   1.000000
    9      -10.507083    -10.494444   1.000000   1.000000
   10      -10.460578    -10.454000   1.000000   1.000000
   11      -10.410674    -10.402955   1.000000   1.000000
   12      -10.329413    -10.316820   1.000000   1.000000
   13      -10.300242    -10.294053   1.000000   1.000000
   14      -10.177931    -10.171997   1.000000   1.000000
   15      -10.169415    -10.162055   1.000000   1.000000
   16      -10.067021    -10.061189   1.000000   1.000000
   17      -10.006819    -10.001613   1.000000   1.000000
   18       -9.895138     -9.890819   1.000000   1.000000
   19       -9.810148     -9.805800   1.000000   1.000000
   20       -9.778034     -9.773036   1.000000   1.000000
   21       -9.725614     -9.722088   1.000000   1.000000
   22       -9.611337     -9.607542   1.000000   1.000000
   23       -9.605888     -9.602360   1.000000   1.000000
   24       -9.597046     -9.594561   1.000000   1.000000
   25       -9.576526     -9.571750   1.000000   1.000000
   26       -9.573440     -9.571165   1.000000   1.000000
   27       -9.567007     -9.563634   1.000000   1.000000
   28       -9.563430     -9.559869   1.000000   1.000000
   29       -9.560263     -9.554449   1.000000   1.000000
   30       -9.344400     -9.342061   1.000000   1.000000
   31       -9.337069     -9.334761   1.000000   1.000000
   32       -9.270251     -9.267310   1.000000   1.000000
   33       -9.197795     -9.195477   1.000000   1.000000
   34       -9.171033     -9.168468   1.000000   1.000000
   35       -9.146548     -9.143993   1.000000   1.000000
   36       -9.139119     -9.136327   1.000000   1.000000
   37       -2.330082     -2.278356   1.000000   1.000000
   38       -1.411918     -1.369034   1.000000   1.000000
   39       -1.296913     -1.273052   1.000000   1.000000
   40       -1.161964     -1.132766   1.000000   1.000000
   41       -1.137481     -1.111371   1.000000   1.000000
   42       -1.060686     -1.024886   1.000000   1.000000
   43       -1.044790     -1.022731   1.000000   1.000000
   44       -0.784162     -0.763417   1.000000   1.000000
   45       -0.775847     -0.756854   1.000000   1.000000
   46       -0.701281     -0.679661   1.000000   1.000000
   47       -0.697033     -0.677257   1.000000   1.000000
   48       -0.688276     -0.669373   1.000000   1.000000
   49       -0.667122     -0.649541   1.000000   1.000000
   50       -0.558763     -0.540652   1.000000   1.000000
   51       -0.536370     -0.519960   1.000000   1.000000
   52       -0.488688     -0.466236   1.000000   1.000000
   53       -0.462992     -0.441467   1.000000   1.000000
   54       -0.440228     -0.411901   1.000000   1.000000
   55       -0.299885     -0.268590   1.000000   1.000000
   56        0.160919      0.185059   1.000000   1.000000
   57        0.269303      0.288032   1.000000   1.000000
   58        0.276275      0.291419   1.000000   1.000000
   59        0.332042      0.351852   1.000000   1.000000
   60        0.347020      0.363865   1.000000   1.000000
   61        0.515332      0.524634   1.000000   1.000000
   62        0.580214      0.589014   1.000000   1.000000