       N       E                     dE             d eps       ncg     rms          ort
SDA:   1    -0.655006805419E+03   -0.65501E+03    0.00000E+00  1792   0.491E+01 0.000E+00
CGA:   2    -0.657541114873E+03   -0.25343E+01   -0.25283E+01  1792   0.136E+01 0.233E-01
CGA:   3    -0.658293870737E+03   -0.75276E+00   -0.73597E+00  1792   0.602E+00 0.547E-01
CGA:   4    -0.658560659726E+03   -0.26679E+00   -0.26745E+00  1792   0.100E+00-0.331E-02
CGA:   5    -0.658606956754E+03   -0.46297E-01   -0.46369E-01  1792   0.296E-01-0.331E-03
CGA:   6    -0.658620696020E+03   -0.13739E-01   -0.13752E-01  1792   0.728E-02-0.536E-04
CGA:   7    -0.658624728760E+03   -0.40327E-02   -0.40370E-02  1792   0.259E-02-0.136E-04
CGA:   8    -0.658625777161E+03   -0.10484E-02   -0.10490E-02  1792   0.444E-03-0.499E-05
CGA:   9    -0.658625977459E+03   -0.20030E-03   -0.20245E-03  1792   0.120E-03-0.125E-04
CGA:  10    -0.658626027171E+03   -0.49711E-04   -0.50347E-04  1792   0.425E-04-0.458E-05
CGA:  11    -0.658626042878E+03   -0.15708E-04   -0.15824E-04  1792   0.178E-04-0.133E-05
CGA:  12    -0.658626049472E+03   -0.65934E-05   -0.66240E-05  1792   0.647E-05-0.376E-06
   1 F= -.65862605E+03 E0= -.65862604E+03  d E =-.658626E+03  mag=     0.7498
       N       E                     dE             d eps       ncg     rms          ort
SDA:   1    -0.658626055744E+03   -0.12865E-04    0.00000E+00  1792   0.675E-03 0.000E+00
CGA:   2    -0.658626305212E+03   -0.24947E-03   -0.24951E-03  1792   0.103E-03-0.907E-06
CGA:   3    -0.658626345937E+03   -0.40725E-04   -0.40716E-04  1792   0.946E-05 0.105E-06
CGA:   4    -0.658626349608E+03   -0.36709E-05   -0.36694E-05  1792   0.215E-05 0.394E-07
CGA:   5    -0.658626350709E+03   -0.11014E-05   -0.11089E-05  1792   0.933E-06-0.324E-07
CGA:   6    -0.658626351219E+03   -0.50978E-06   -0.52306E-06  1792   0.459E-06-0.597E-07
CGA:   7    -0.658626351439E+03   -0.21987E-06   -0.22614E-06  1792   0.200E-06-0.389E-07
CGA:   8    -0.658626351527E+03   -0.87994E-07   -0.89329E-07  1792   0.907E-07-0.816E-08
   2 F= -.65862635E+03 E0= -.65862635E+03  d E =-.302055E-03  mag=     0.7498
       N       E                     dE             d eps       ncg     rms          ort
SDA:   1    -0.658624502301E+03    0.18491E-02    0.00000E+00  1792   0.603E-02 0.000E+00
CGA:   2    -0.658626733829E+03   -0.22315E-02   -0.22315E-02  1792   0.908E-03-0.185E-05
CGA:   3    -0.658627090364E+03   -0.35654E-03   -0.35652E-03  1792   0.750E-04 0.555E-06
CGA:   4    -0.658627118643E+03   -0.28279E-04   -0.28280E-04  1792   0.142E-04 0.193E-06
CGA:   5    -0.658627124942E+03   -0.62993E-05   -0.62981E-05  1792   0.420E-05 0.136E-07
CGA:   6    -0.658627126959E+03   -0.20163E-05   -0.20185E-05  1792   0.140E-05-0.196E-07
CGA:   7    -0.658627127576E+03   -0.61725E-06   -0.61771E-06  1792   0.372E-06-0.130E-07
CGA:   8    -0.658627127712E+03   -0.13587E-06   -0.13684E-06  1792   0.958E-07 0.116E-07
   3 F= -.65862713E+03 E0= -.65862712E+03  d E =-.107824E-02  mag=     0.7498
       N       E                     dE             d eps       ncg     rms          ort
SDA:   1    -0.658617677915E+03    0.94497E-02    0.00000E+00  1792   0.243E-01 0.000E+00
CGA:   2    -0.658626620332E+03   -0.89424E-02   -0.89423E-02  1792   0.362E-02-0.409E-05
CGA:   3    -0.658628038674E+03   -0.14183E-02   -0.14183E-02  1792   0.293E-03 0.146E-05
CGA:   4    -0.658628148780E+03   -0.11011E-03   -0.11011E-03  1792   0.562E-04 0.409E-06
CGA:   5    -0.658628173889E+03   -0.25109E-04   -0.25106E-04  1792   0.170E-04 0.587E-07
CGA:   6    -0.658628182114E+03   -0.82258E-05   -0.82288E-05  1792   0.556E-05-0.290E-07
CGA:   7    -0.658628184579E+03   -0.24640E-05   -0.24648E-05  1792   0.140E-05-0.306E-07
CGA:   8    -0.658628185112E+03   -0.53376E-06   -0.53305E-06  1792   0.354E-06 0.307E-07
   4 F= -.65862819E+03 E0= -.65862818E+03  d E =-.213564E-02  mag=     0.7498
       N       E                     dE             d eps       ncg     rms          ort
SDA:   1    -0.658586273778E+03    0.41911E-01    0.00000E+00  1792   0.987E-01 0.000E+00
CGA:   2    -0.658622193361E+03   -0.35920E-01   -0.35919E-01  1792   0.144E-01-0.119E-04
CGA:   3    -0.658627764957E+03   -0.55716E-02   -0.55716E-02  1792   0.110E-02 0.481E-05
CGA:   4    -0.658628172291E+03   -0.40733E-03   -0.40735E-03  1792   0.213E-03 0.849E-06
CGA:   5    -0.658628268462E+03   -0.96171E-04   -0.96156E-04  1792   0.672E-04 0.175E-06
CGA:   6    -0.658628301501E+03   -0.33039E-04   -0.33040E-04  1792   0.214E-04-0.190E-07
CGA:   7    -0.658628310802E+03   -0.93015E-05   -0.93056E-05  1792   0.494E-05-0.580E-07
CGA:   8    -0.658628312712E+03   -0.19100E-05   -0.19099E-05  1792   0.127E-05 0.461E-07
   5 F= -.65862831E+03 E0= -.65862831E+03  d E =-.226324E-02  mag=     0.7498
       N       E                     dE             d eps       ncg     rms          ort
SDA:   1    -0.658619726790E+03    0.85840E-02    0.00000E+00  1792   0.213E-01 0.000E+00
CGA:   2    -0.658627316730E+03   -0.75899E-02   -0.75902E-02  1792   0.290E-02 0.382E-05
CGA:   3    -0.658628467111E+03   -0.11504E-02   -0.11504E-02  1792   0.257E-03-0.725E-06
CGA:   4    -0.658628554958E+03   -0.87847E-04   -0.87846E-04  1792   0.439E-04 0.136E-07
CGA:   5    -0.658628575439E+03   -0.20481E-04   -0.20476E-04  1792   0.148E-04 0.379E-07
CGA:   6    -0.658628582708E+03   -0.72689E-05   -0.72588E-05  1792   0.470E-05 0.104E-06
CGA:   7    -0.658628584746E+03   -0.20383E-05   -0.20397E-05  1792   0.987E-06-0.558E-07
CGA:   8    -0.658628585151E+03   -0.40461E-06   -0.40467E-06  1792   0.275E-06-0.465E-08
   6 F= -.65862859E+03 E0= -.65862858E+03  d E =-.253568E-02  mag=     0.7498
       N       E                     dE             d eps       ncg     rms          ort
SDA:   1    -0.658628499983E+03    0.84764E-04    0.00000E+00  1792   0.452E-03 0.000E+00
CGA:   2    -0.658628667017E+03   -0.16703E-03   -0.16702E-03  1792   0.771E-04-0.492E-06
CGA:   3    -0.658628695474E+03   -0.28457E-04   -0.28461E-04  1792   0.799E-05 0.986E-07
CGA:   4    -0.658628698318E+03   -0.28438E-05   -0.28447E-05  1792   0.153E-05 0.388E-07
CGA:   5    -0.658628698997E+03   -0.67929E-06   -0.67920E-06  1792   0.495E-06 0.664E-09
CGA:   6    -0.658628699231E+03   -0.23410E-06   -0.23365E-06  1792   0.154E-06-0.635E-08
CGA:   7    -0.658628699291E+03   -0.60224E-07   -0.62401E-07  1792   0.401E-07-0.210E-08
CGA:   8    -0.658628699307E+03   -0.15711E-07   -0.15698E-07  1792   0.115E-07-0.311E-08
   7 F= -.65862870E+03 E0= -.65862870E+03  d E =-.114156E-03  mag=     0.7498
       N       E                     dE             d eps       ncg     rms          ort
SDA:   1    -0.658627112819E+03    0.15865E-02    0.00000E+00  1792   0.408E-02 0.000E+00
CGA:   2    -0.658628616503E+03   -0.15037E-02   -0.15036E-02  1792   0.691E-03-0.156E-05
CGA:   3    -0.658628872097E+03   -0.25559E-03   -0.25560E-03  1792   0.704E-04 0.307E-06
CGA:   4    -0.658628897244E+03   -0.25147E-04   -0.25152E-04  1792   0.134E-04 0.115E-06
CGA:   5    -0.658628903243E+03   -0.59984E-05   -0.59990E-05  1792   0.435E-05-0.137E-07
CGA:   6    -0.658628905304E+03   -0.20609E-05   -0.20612E-05  1792   0.130E-05-0.207E-07
CGA:   7    -0.658628905840E+03   -0.53584E-06   -0.53483E-06  1792   0.321E-06-0.482E-10
CGA:   8    -0.658628905962E+03   -0.12217E-06   -0.12118E-06  1792   0.743E-07 0.798E-08
   8 F= -.65862891E+03 E0= -.65862890E+03  d E =-.320811E-03  mag=     0.7498
