 vasp.5.4.1 24Jun15 (build Oct 18 2022 00:58:31) complex                         
 executed on        GCC_CrayMPICH date 2024.01.16  12:14:18
 running on 1024 total cores
 distrk:  each k-point on  128 cores,    8 groups
 distr:  one band on NCORES_PER_BAND=   4 cores,   32 groups


--------------------------------------------------------------------------------------------------------


 INCAR:
 POTCAR:    PAW_PBE Al 04Jan2001                  
 POTCAR:    PAW_PBE Si 05Jan2001                  
 POTCAR:    PAW_PBE N 08Apr2002                   

 ----------------------------------------------------------------------------- 
|                                                                             |
|           W    W    AA    RRRRR   N    N  II  N    N   GGGG   !!!           |
|           W    W   A  A   R    R  NN   N  II  NN   N  G    G  !!!           |
|           W    W  A    A  R    R  N N  N  II  N N  N  G       !!!           |
|           W WW W  AAAAAA  RRRRR   N  N N  II  N  N N  G  GGG   !            |
|           WW  WW  A    A  R   R   N   NN  II  N   NN  G    G                |
|           W    W  A    A  R    R  N    N  II  N    N   GGGG   !!!           |
|                                                                             |
|      For optimal performance we recommend to set                            |
|        NCORE= 4 - approx SQRT( number of cores)                             |
|      NCORE specifies how many cores store one orbital (NPAR=cpu/NCORE).     |
|      This setting can  greatly improve the performance of VASP for DFT.     |
|      The default, NPAR=number of cores might be grossly inefficient         |
|      on modern multi-core architectures or massively parallel machines.     |
|      Do your own testing !!!!                                               |
|      Unfortunately you need to use the default for GW and RPA calculations. |
|      (for HF NCORE is supported but not extensively tested yet)             |
|                                                                             |
 ----------------------------------------------------------------------------- 


 ----------------------------------------------------------------------------- 
|                                                                             |
|           W    W    AA    RRRRR   N    N  II  N    N   GGGG   !!!           |
|           W    W   A  A   R    R  NN   N  II  NN   N  G    G  !!!           |
|           W    W  A    A  R    R  N N  N  II  N N  N  G       !!!           |
|           W WW W  AAAAAA  RRRRR   N  N N  II  N  N N  G  GGG   !            |
|           WW  WW  A    A  R   R   N   NN  II  N   NN  G    G                |
|           W    W  A    A  R    R  N    N  II  N    N   GGGG   !!!           |
|                                                                             |
|      You have enabled k-point parallelism (KPAR>1).                         |
|      This developmental code was originally  written by Paul Kent at ORNL,  |
|      and carefully double checked in Vienna.                                |
|      GW as well as linear response parallelism added by Martijn Marsman     |
|      and Georg Kresse.                                                      |
|      Carefully verify results versus KPAR=1.                                |
|      Report problems to Paul Kent and Vienna.                               |
|                                                                             |
 ----------------------------------------------------------------------------- 

 POTCAR:    PAW_PBE Al 04Jan2001                  
   VRHFIN =Al: s2p1                                                             
   LEXCH  = PE                                                                  
   EATOM  =    53.5387 eV,    3.9350 Ry                                         
                                                                                
   TITEL  = PAW_PBE Al 04Jan2001                                                
   LULTRA =        F    use ultrasoft PP ?                                      
   IUNSCR =        1    unscreen: 0-lin 1-nonlin 2-no                           
   RPACOR =    1.500    partial core radius                                     
   POMASS =   26.981; ZVAL   =    3.000    mass and valenz                      
   RCORE  =    1.900    outmost cutoff radius                                   
   RWIGS  =    2.650; RWIGS  =    1.402    wigner-seitz radius (au A)           
   ENMAX  =  240.300; ENMIN  =  180.225 eV                                      
   ICORE  =        2    local potential                                         
   LCOR   =        T    correct aug charges                                     
   LPAW   =        T    paw PP                                                  
   EAUG   =  291.052                                                            
   DEXC   =    0.000                                                            
   RMAX   =    1.939    core radius for proj-oper                               
   RAUG   =    1.300    factor for augmentation sphere                          
   RDEP   =    1.966    radius for radial grids                                 
   RDEPT  =    1.856    core radius for aug-charge                              
                                                                                
   Atomic configuration                                                         
    6 entries                                                                   
     n  l   j            E        occ.                                          
     1  0  0.50     -1511.1048   2.0000                                         
     2  0  0.50      -108.1629   2.0000                                         
     2  1  1.50       -69.6402   6.0000                                         
     3  0  0.50        -7.7528   2.0000                                         
     3  1  1.50        -2.7121   1.0000                                         
     3  2  2.50        -2.7212   0.0000                                         
   Description                                                                  
     l       E           TYP  RCUT    TYP  RCUT                                 
     0     -7.7528455     23  1.900                                             
     0     -3.3096929     23  1.900                                             
     1     -2.7120682     23  1.900                                             
     1     13.6058260     23  1.900                                             
     2     -2.7211652      7  1.900                                             
  local pseudopotential read in
  partial core-charges read in
  partial kinetic energy density read in
  atomic valenz-charges read in
  non local Contribution for L=           0  read in
    real space projection operators read in
  non local Contribution for L=           0  read in
    real space projection operators read in
  non local Contribution for L=           1  read in
    real space projection operators read in
  non local Contribution for L=           1  read in
    real space projection operators read in
    PAW grid and wavefunctions read in

   number of l-projection  operators is LMAX  =           4
   number of lm-projection operators is LMMAX =           8

 POTCAR:    PAW_PBE Si 05Jan2001                  
   VRHFIN =Si: s2p2                                                             
   LEXCH  = PE                                                                  
   EATOM  =   103.0669 eV,    7.5752 Ry                                         
                                                                                
   TITEL  = PAW_PBE Si 05Jan2001                                                
   LULTRA =        F    use ultrasoft PP ?                                      
   IUNSCR =        1    unscreen: 0-lin 1-nonlin 2-no                           
   RPACOR =    1.500    partial core radius                                     
   POMASS =   28.085; ZVAL   =    4.000    mass and valenz                      
   RCORE  =    1.900    outmost cutoff radius                                   
   RWIGS  =    2.480; RWIGS  =    1.312    wigner-seitz radius (au A)           
   ENMAX  =  245.345; ENMIN  =  184.009 eV                                      
   ICORE  =        2    local potential                                         
   LCOR   =        T    correct aug charges                                     
   LPAW   =        T    paw PP                                                  
   EAUG   =  322.069                                                            
   DEXC   =    0.000                                                            
   RMAX   =    1.950    core radius for proj-oper                               
   RAUG   =    1.300    factor for augmentation sphere                          
   RDEP   =    1.993    radius for radial grids                                 
   RDEPT  =    1.837    core radius for aug-charge                              
                                                                                
   Atomic configuration                                                         
    6 entries                                                                   
     n  l   j            E        occ.                                          
     1  0  0.50     -1785.8828   2.0000                                         
     2  0  0.50      -139.4969   2.0000                                         
     2  1  1.50       -95.5546   6.0000                                         
     3  0  0.50       -10.8127   2.0000                                         
     3  1  0.50        -4.0811   2.0000                                         
     3  2  1.50        -4.0817   0.0000                                         
   Description                                                                  
     l       E           TYP  RCUT    TYP  RCUT                                 
     0    -10.8127223     23  1.900                                             
     0     -7.6451159     23  1.900                                             
     1     -4.0811372     23  1.900                                             
     1      2.4879257     23  1.900                                             
     2     -4.0817478      7  1.900                                             
  local pseudopotential read in
  partial core-charges read in
  partial kinetic energy density read in
  atomic valenz-charges read in
  non local Contribution for L=           0  read in
    real space projection operators read in
  non local Contribution for L=           0  read in
    real space projection operators read in
  non local Contribution for L=           1  read in
    real space projection operators read in
  non local Contribution for L=           1  read in
    real space projection operators read in
    PAW grid and wavefunctions read in

   number of l-projection  operators is LMAX  =           4
   number of lm-projection operators is LMMAX =           8

 POTCAR:    PAW_PBE N 08Apr2002                   
   VRHFIN =N: s2p3                                                              
   LEXCH  = PE                                                                  
   EATOM  =   264.5486 eV,   19.4438 Ry                                         
                                                                                
   TITEL  = PAW_PBE N 08Apr2002                                                 
   LULTRA =        F    use ultrasoft PP ?                                      
   IUNSCR =        1    unscreen: 0-lin 1-nonlin 2-no                           
   RPACOR =    1.200    partial core radius                                     
   POMASS =   14.001; ZVAL   =    5.000    mass and valenz                      
   RCORE  =    1.500    outmost cutoff radius                                   
   RWIGS  =    1.400; RWIGS  =    0.741    wigner-seitz radius (au A)           
   ENMAX  =  400.000; ENMIN  =  300.000 eV                                      
   ICORE  =        2    local potential                                         
   LCOR   =        T    correct aug charges                                     
   LPAW   =        T    paw PP                                                  
   EAUG   =  627.112                                                            
   DEXC   =    0.000                                                            
   RMAX   =    1.529    core radius for proj-oper                               
   RAUG   =    1.300    factor for augmentation sphere                          
   RDEP   =    1.514    radius for radial grids                                 
   RDEPT  =    1.338    core radius for aug-charge                              
                                                                                
   Atomic configuration                                                         
    4 entries                                                                   
     n  l   j            E        occ.                                          
     1  0  0.50      -384.7179   2.0000                                         
     2  0  0.50       -18.5828   2.0000                                         
     2  1  0.50        -7.0898   3.0000                                         
     3  2  1.50        -6.8029   0.0000                                         
   Description                                                                  
     l       E           TYP  RCUT    TYP  RCUT                                 
     0    -18.5828119     23  1.200                                             
     0    -13.5018863     23  1.200                                             
     1     -7.0897853     23  1.500                                             
     1      9.5240782     23  1.500                                             
     2     -6.8029130      7  1.500                                             
  local pseudopotential read in
  partial core-charges read in
  partial kinetic energy density read in
  atomic valenz-charges read in
  non local Contribution for L=           0  read in
    real space projection operators read in
  non local Contribution for L=           0  read in
    real space projection operators read in
  non local Contribution for L=           1  read in
    real space projection operators read in
  non local Contribution for L=           1  read in
    real space projection operators read in
    PAW grid and wavefunctions read in

   number of l-projection  operators is LMAX  =           4
   number of lm-projection operators is LMMAX =           8

 Optimization of the real space projectors (new method)

 maximal supplied QI-value         = 19.84
 optimisation between [QCUT,QGAM] = [ 11.31, 22.82] = [ 35.82,145.81] Ry 
 Optimized for a Real-space Cutoff    1.07 Angstroem

   l    n(q)    QCUT    max X(q) W(low)/X(q) W(high)/X(q)  e(spline) 
   0      7    11.310   176.870    0.43E-03    0.33E-03    0.78E-07
   0      7    11.310   105.762    0.41E-03    0.33E-03    0.76E-07
   1      7    11.310    55.370    0.40E-03    0.29E-03    0.65E-07
   1      7    11.310    20.208    0.38E-03    0.25E-03    0.60E-07
 Optimization of the real space projectors (new method)

 maximal supplied QI-value         = 19.84
 optimisation between [QCUT,QGAM] = [ 11.31, 22.82] = [ 35.82,145.81] Ry 
 Optimized for a Real-space Cutoff    1.16 Angstroem

   l    n(q)    QCUT    max X(q) W(low)/X(q) W(high)/X(q)  e(spline) 
   0      8    11.310   159.560    0.27E-03    0.30E-03    0.39E-07
   0      8    11.310   115.863    0.27E-03    0.30E-03    0.38E-07
   1      7    11.310    88.339    0.28E-03    0.28E-03    0.77E-07
   1      7    11.310    48.592    0.27E-03    0.27E-03    0.74E-07
 Optimization of the real space projectors (new method)

 maximal supplied QI-value         = 25.13
 optimisation between [QCUT,QGAM] = [ 11.31, 22.87] = [ 35.82,146.48] Ry 
 Optimized for a Real-space Cutoff    1.27 Angstroem

   l    n(q)    QCUT    max X(q) W(low)/X(q) W(high)/X(q)  e(spline) 
   0      9    11.310    79.467    0.75E-04    0.16E-03    0.36E-06
   0      9    11.310    66.151    0.74E-04    0.16E-03    0.36E-06
   1      8    11.310    17.416    0.35E-03    0.12E-03    0.95E-06
   1      8    11.310    12.382    0.37E-03    0.13E-03    0.98E-06
  PAW_PBE Al 04Jan2001                  :
 energy of atom  1       EATOM=  -53.5387
 kinetic energy error for atom=    0.0003 (will be added to EATOM!!)
  PAW_PBE Si 05Jan2001                  :
 energy of atom  2       EATOM= -103.0669
 kinetic energy error for atom=    0.0006 (will be added to EATOM!!)
  PAW_PBE N 08Apr2002                   :
 energy of atom  3       EATOM= -264.5486
 kinetic energy error for atom=    0.0138 (will be added to EATOM!!)


 POSCAR: 20.0% N(Distort)=2 ~[0.1,0.2,0.5]       
  positions in direct lattice
  velocities in cartesian coordinates
 exchange correlation table for  LEXCH =        8
   RHO(1)=    0.500       N(1)  =     2000
   RHO(2)=  100.500       N(2)  =     4000



--------------------------------------------------------------------------------------------------------


 ion  position               nearest neighbor table
   1  0.114  0.225  0.997-  56 1.88  68 1.88  58 1.88  37 1.88  30 3.04  18 3.04  20 3.04  19 3.07
                            31 3.07  21 3.07   3 3.09  13 3.09   7 3.09   5 3.09  17 3.09   9 3.09
   2  0.113  0.559  0.498-  69 1.87  40 1.88  59 1.89  57 1.93  21 3.05  33 3.05  23 3.05  32 3.06
                            22 3.06  20 3.08  12 3.08  14 3.08   4 3.09  36 3.10  10 3.10   8 3.12
   3  0.114  0.559  0.998-  70 1.88  60 1.88  58 1.89  39 1.90  20 3.05  33 3.05  32 3.05  23 3.05
                            22 3.05  21 3.06   1 3.09  13 3.09   9 3.09  15 3.10  11 3.10   5 3.10
   4  0.112  0.891  0.498-  71 1.87  42 1.88  59 1.89  55 1.93  19 3.04  35 3.05  23 3.05  34 3.06
                            22 3.07  18 3.08  16 3.08  14 3.09   2 3.09  36 3.10  10 3.10   6 3.12
   5  0.113  0.892  0.997-  72 1.88  60 1.88  56 1.89  41 1.90  35 3.05  18 3.05  22 3.05  34 3.05
                            23 3.05  19 3.06  17 3.09   1 3.09   7 3.10  15 3.10  11 3.10   3 3.10
   6  0.448  0.227  0.498-  63 1.87  44 1.88  61 1.89  55 1.93  19 3.04  27 3.05  25 3.05  26 3.06
                            24 3.07  18 3.08   8 3.08  14 3.09  12 3.09  36 3.10  10 3.10   4 3.12
   7  0.447  0.225  0.997-  64 1.88  62 1.88  56 1.89  43 1.90  18 3.05  27 3.05  24 3.05  25 3.05
                            26 3.05  19 3.05   9 3.09   1 3.09  15 3.10   5 3.10  11 3.10  13 3.10
   8  0.448  0.559  0.498-  63 1.87  46 1.88  65 1.89  57 1.93  21 3.04  27 3.05  29 3.05  26 3.06
                            28 3.07  20 3.08   6 3.08  14 3.09  16 3.09  36 3.10  10 3.10   2 3.12
   9  0.447  0.558  0.997-  64 1.88  66 1.88  58 1.89  45 1.90  20 3.05  27 3.05  26 3.05  28 3.05
                            29 3.05  21 3.05   7 3.09   1 3.09   3 3.09  15 3.10  17 3.10  11 3.10
  10  0.447  0.892  0.498-  59 1.88  65 1.88  61 1.88  48 1.89  23 3.05  25 3.05  29 3.05  24 3.06
                            22 3.06  28 3.06   2 3.10  12 3.10   6 3.10  16 3.10   4 3.10   8 3.10
  11  0.447  0.892  0.997-  60 1.88  62 1.88  66 1.88  47 1.89  28 3.05  23 3.05  29 3.05  25 3.05
                            24 3.05  22 3.05  13 3.10   7 3.10   3 3.10  17 3.10   5 3.10   9 3.10
  12  0.781  0.227  0.498-  69 1.87  50 1.88  61 1.89  67 1.93  31 3.05  33 3.05  25 3.05  32 3.06
                            24 3.07  30 3.08   2 3.08  14 3.08   6 3.09  36 3.10  10 3.10  16 3.12
  13  0.780  0.225  0.997-  70 1.88  62 1.88  68 1.89  49 1.90  30 3.05  33 3.05  25 3.05  24 3.05
                            32 3.05  31 3.06   1 3.09   3 3.09  17 3.09  15 3.10  11 3.10   7 3.10
  14  0.780  0.559  0.498-  69 1.88  63 1.88  71 1.88  52 1.89  27 3.06  35 3.06  32 3.06  34 3.06
                            33 3.06  26 3.06  12 3.08   2 3.08   8 3.09   4 3.09  16 3.09   6 3.09
  15  0.780  0.559  0.998-  64 1.88  70 1.88  72 1.88  51 1.89  27 3.05  32 3.05  33 3.05  26 3.05
                            35 3.05  34 3.05  13 3.10   7 3.10   9 3.10   5 3.10   3 3.10  17 3.10
  16  0.781  0.891  0.498-  71 1.87  54 1.88  65 1.89  67 1.93  31 3.04  35 3.05  29 3.05  34 3.06
                            28 3.07  30 3.08   4 3.08  14 3.09   8 3.09  36 3.10  10 3.10  12 3.12
  17  0.780  0.892  0.997-  72 1.88  66 1.88  68 1.89  53 1.90  35 3.05  30 3.05  29 3.05  34 3.05
                            28 3.05  31 3.06   5 3.09   1 3.09  13 3.09  11 3.10  15 3.10   9 3.10
  18  0.224  0.115  0.246-  37 1.87  41 1.87  43 1.87  55 1.93   1 3.04   7 3.05   5 3.05  36 3.07
                             4 3.08   6 3.08  20 3.08  30 3.08  34 3.10  26 3.10  22 3.10  24 3.10
  19  0.226  0.114  0.747-  42 1.87  44 1.87  56 1.88  38 1.93   4 3.04   6 3.04  36 3.05   7 3.05
                             5 3.06   1 3.07  23 3.08  25 3.09  35 3.10  27 3.10  31 3.12  21 3.12
  20  0.224  0.446  0.246-  37 1.87  45 1.87  39 1.87  57 1.93   1 3.04   3 3.05   9 3.05  36 3.07
                             2 3.08   8 3.08  18 3.08  30 3.08  26 3.10  32 3.10  28 3.10  22 3.11
  21  0.226  0.450  0.747-  46 1.87  40 1.87  58 1.89  38 1.93   8 3.04   2 3.05  36 3.05   9 3.05
                             3 3.06   1 3.07  29 3.08  23 3.08  33 3.10  27 3.10  19 3.12  31 3.12
  22  0.225  0.781  0.247-  47 1.88  39 1.88  41 1.88  59 1.89  11 3.05   5 3.05   3 3.05  10 3.06
                             2 3.06   4 3.07  28 3.09  24 3.09  34 3.10  32 3.10  18 3.10  20 3.11
  23  0.225  0.781  0.748-  48 1.88  40 1.88  42 1.88  60 1.89  11 3.05  10 3.05   5 3.05   3 3.05
                             4 3.05   2 3.05  19 3.08  21 3.08  29 3.09  25 3.10  33 3.10  35 3.10
  24  0.558  0.114  0.247-  47 1.88  43 1.88  49 1.88  61 1.89  11 3.05   7 3.05  13 3.05  10 3.06
                            12 3.07   6 3.07  28 3.09  22 3.09  26 3.10  32 3.10  18 3.10  30 3.11
  25  0.558  0.114  0.748-  48 1.88  50 1.88  44 1.88  62 1.89  10 3.05  11 3.05  13 3.05   7 3.05
                            12 3.05   6 3.05  31 3.08  19 3.09  29 3.09  23 3.10  27 3.10  33 3.10
  26  0.558  0.448  0.247-  51 1.88  43 1.88  45 1.88  63 1.89  15 3.05   9 3.05   7 3.05   8 3.06
                             6 3.06  14 3.06  34 3.09  32 3.09  20 3.10  18 3.10  24 3.10  28 3.10
  27  0.559  0.448  0.748-  52 1.88  44 1.88  46 1.88  64 1.89  15 3.05   9 3.05   6 3.05   7 3.05
                             8 3.05  14 3.06  35 3.09  33 3.09  25 3.10  29 3.10  21 3.10  19 3.10
  28  0.558  0.781  0.247-  47 1.88  45 1.88  53 1.88  65 1.89  11 3.05  17 3.05   9 3.05  10 3.06
                             8 3.07  16 3.07  22 3.09  24 3.09  26 3.10  34 3.10  20 3.10  30 3.11
  29  0.558  0.781  0.748-  48 1.88  54 1.88  46 1.88  66 1.89  11 3.05  10 3.05  17 3.05  16 3.05
                             8 3.05   9 3.05  31 3.08  21 3.08  23 3.09  25 3.09  35 3.10  27 3.10
  30  0.893  0.115  0.246-  37 1.87  49 1.87  53 1.87  67 1.93   1 3.04  13 3.05  17 3.05  36 3.07
                            16 3.08  12 3.08  18 3.08  20 3.08  32 3.10  34 3.10  28 3.11  24 3.11
  31  0.890  0.113  0.747-  50 1.87  54 1.87  68 1.89  38 1.93  16 3.04  12 3.05  36 3.05  13 3.06
                            17 3.06   1 3.07  29 3.08  25 3.08  33 3.10  35 3.10  19 3.12  21 3.12
  32  0.891  0.448  0.247-  51 1.88  49 1.88  39 1.88  69 1.89  15 3.05   3 3.05  13 3.05  12 3.06
                             2 3.06  14 3.06  34 3.09  26 3.09  30 3.10  20 3.10  22 3.10  24 3.10
  33  0.892  0.448  0.748-  52 1.88  50 1.88  40 1.88  70 1.89   3 3.05   2 3.05  15 3.05  13 3.05
                            12 3.05  14 3.06  35 3.09  27 3.09  23 3.10  25 3.10  21 3.10  31 3.10
  34  0.891  0.781  0.247-  51 1.88  41 1.88  53 1.88  71 1.89  15 3.05   5 3.05  17 3.05  16 3.06
                             4 3.06  14 3.06  26 3.09  32 3.09  30 3.10  18 3.10  22 3.10  28 3.10
  35  0.891  0.781  0.748-  52 1.88  42 1.88  54 1.88  72 1.89   4 3.05   5 3.05  17 3.05  15 3.05
                            16 3.05  14 3.06  27 3.09  33 3.09  23 3.10  29 3.10  19 3.10  31 3.10
  36  0.114  0.226  0.498-  38 1.78  55 1.78  67 1.78  57 1.78  31 3.05  21 3.05  19 3.05  20 3.07
                            30 3.07  18 3.07  12 3.10   2 3.10   6 3.10   4 3.10   8 3.10  16 3.10
  37  0.114  0.225  0.187-  30 1.87  20 1.87  18 1.87   1 1.88
  38  0.114  0.226  0.678-  36 1.78  31 1.93  19 1.93  21 1.93
  39  0.114  0.558  0.189-  20 1.87  22 1.88  32 1.88   3 1.90
  40  0.114  0.559  0.688-  21 1.87  33 1.88  23 1.88   2 1.88
  41  0.114  0.893  0.189-  18 1.87  34 1.88  22 1.88   5 1.90
  42  0.114  0.892  0.688-  19 1.87  35 1.88   4 1.88  23 1.88
  43  0.446  0.225  0.189-  18 1.87  26 1.88  24 1.88   7 1.90
  44  0.447  0.226  0.688-  19 1.87  27 1.88   6 1.88  25 1.88
  45  0.446  0.558  0.189-  20 1.87  26 1.88  28 1.88   9 1.90
  46  0.447  0.559  0.688-  21 1.87   8 1.88  27 1.88  29 1.88
  47  0.447  0.892  0.188-  24 1.88  28 1.88  22 1.88  11 1.89
  48  0.447  0.892  0.689-  25 1.88  29 1.88  23 1.88  10 1.89
  49  0.781  0.225  0.189-  30 1.87  32 1.88  24 1.88  13 1.90
  50  0.781  0.226  0.688-  31 1.87  33 1.88  12 1.88  25 1.88
  51  0.780  0.559  0.189-  34 1.88  32 1.88  26 1.88  15 1.89
  52  0.781  0.559  0.689-  35 1.88  27 1.88  33 1.88  14 1.89
  53  0.781  0.893  0.189-  30 1.87  34 1.88  28 1.88  17 1.90
  54  0.781  0.892  0.688-  31 1.87  16 1.88  35 1.88  29 1.88
  55  0.219  0.121  0.441-  36 1.78   6 1.93   4 1.93  18 1.93
  56  0.224  0.115  0.937-   1 1.88  19 1.88   7 1.89   5 1.89
  57  0.219  0.435  0.441-  36 1.78   2 1.93   8 1.93  20 1.93
  58  0.224  0.447  0.937-   1 1.88  21 1.89   9 1.89   3 1.89
  59  0.225  0.781  0.438-  10 1.88   4 1.89   2 1.89  22 1.89
  60  0.225  0.781  0.939-   5 1.88   3 1.88  11 1.88  23 1.89
  61  0.558  0.114  0.438-  10 1.88  12 1.89   6 1.89  24 1.89
  62  0.558  0.115  0.939-  13 1.88   7 1.88  11 1.88  25 1.89
  63  0.558  0.448  0.438-   8 1.87   6 1.87  14 1.88  26 1.89
  64  0.558  0.448  0.939-   9 1.88   7 1.88  15 1.88  27 1.89
  65  0.558  0.781  0.438-  10 1.88  16 1.89   8 1.89  28 1.89
  66  0.558  0.781  0.939-  17 1.88   9 1.88  11 1.88  29 1.89
  67  0.904  0.121  0.441-  36 1.78  12 1.93  16 1.93  30 1.93
  68  0.892  0.115  0.937-   1 1.88  31 1.89  17 1.89  13 1.89
  69  0.892  0.448  0.438-   2 1.87  12 1.87  14 1.88  32 1.89
  70  0.892  0.448  0.939-   3 1.88  13 1.88  15 1.88  33 1.89
  71  0.892  0.781  0.438-  16 1.87   4 1.87  14 1.88  34 1.89
  72  0.891  0.781  0.939-   5 1.88  17 1.88  15 1.88  35 1.89

  LATTYP: Found a hexagonal cell.
 ALAT       =     9.2872017641
 C/A-ratio  =     1.0669595981
  
  Lattice vectors:
  
 A1 = (   9.2872018814,   0.0000000000,   0.0000000000)
 A2 = (  -4.6436029654,   8.0429537929,   0.0000000000)
 A3 = (   0.0000000000,   0.0000000000,   9.9090690613)


Analysis of symmetry for initial positions (statically):
=====================================================================
 Subroutine PRICEL returns:
 Original cell was already a primitive cell.
 

 Routine SETGRP: Setting up the symmetry group for a 
 hexagonal supercell.


 Subroutine GETGRP returns: Found  1 space group operations
 (whereof  1 operations were pure point group operations)
 out of a pool of 24 trial point group operations.


The static configuration has the point symmetry C_1 .


Analysis of symmetry for dynamics (positions and initial velocities):
=====================================================================
 Subroutine PRICEL returns:
 Original cell was already a primitive cell.
 

 Routine SETGRP: Setting up the symmetry group for a 
 hexagonal supercell.


 Subroutine GETGRP returns: Found  1 space group operations
 (whereof  1 operations were pure point group operations)
 out of a pool of 24 trial point group operations.


The dynamic configuration has the point symmetry C_1 .


Analysis of structural, dynamic, and magnetic symmetry:
=====================================================================
 Subroutine PRICEL returns:
 Original cell was already a primitive cell.
 

 Routine SETGRP: Setting up the symmetry group for a 
 hexagonal supercell.


 Subroutine GETGRP returns: Found  1 space group operations
 (whereof  1 operations were pure point group operations)
 out of a pool of 24 trial point group operations.


The magnetic configuration has the point symmetry C_1 .


 Subroutine INISYM returns: Found  1 space group operations
 (whereof  1 operations are pure point group operations),
 and found     1 'primitive' translations



 KPOINTS: MgAlN                                   

Automatic generation of k-mesh.
Space group operators:
 irot       det(A)        alpha          n_x          n_y          n_z        tau_x        tau_y        tau_z
    1     1.000000     0.000000     1.000000     0.000000     0.000000     0.000000     0.000000     0.000000
 
 Subroutine IBZKPT returns following result:
 ===========================================
 
 Found      8 irreducible k-points:
 
 Following reciprocal coordinates:
            Coordinates               Weight
  0.000000  0.000000  0.000000      1.000000
  0.500000  0.000000  0.000000      1.000000
  0.000000  0.500000  0.000000      1.000000
  0.500000  0.500000  0.000000      1.000000
  0.000000  0.000000  0.500000      1.000000
  0.500000  0.000000  0.500000      1.000000
  0.000000  0.500000  0.500000      1.000000
  0.500000  0.500000  0.500000      1.000000
 
 Following cartesian coordinates:
            Coordinates               Weight
  0.000000  0.000000  0.000000      1.000000
  0.053838  0.031083  0.000000      1.000000
  0.000000  0.062166  0.000000      1.000000
  0.053838  0.093249  0.000000      1.000000
  0.000000  0.000000  0.050459      1.000000
  0.053838  0.031083  0.050459      1.000000
  0.000000  0.062166  0.050459      1.000000
  0.053838  0.093249  0.050459      1.000000
 
 
 Subroutine IBZKPT_HF returns following result:
 ==============================================
 
 Found      8 k-points in 1st BZ
 the following      8 k-points will be used (e.g. in the exchange kernel)
 Following reciprocal coordinates:   # in IRBZ
  0.000000  0.000000  0.000000    0.12500000   1 t-inv F
  0.500000  0.000000  0.000000    0.12500000   2 t-inv F
  0.000000  0.500000  0.000000    0.12500000   3 t-inv F
  0.500000  0.500000  0.000000    0.12500000   4 t-inv F
  0.000000  0.000000  0.500000    0.12500000   5 t-inv F
  0.500000  0.000000  0.500000    0.12500000   6 t-inv F
  0.000000  0.500000  0.500000    0.12500000   7 t-inv F
  0.500000  0.500000  0.500000    0.12500000   8 t-inv F


--------------------------------------------------------------------------------------------------------




 Dimension of arrays:
   k-points           NKPTS =      8   k-points in BZ     NKDIM =      8   number of bands    NBANDS=    224
   number of dos      NEDOS =    301   number of ions     NIONS =     72
   non local maximal  LDIM  =      4   non local SUM 2l+1 LMDIM =      8
   total plane-waves  NPLWV = 157464
   max r-space proj   IRMAX =   1883   max aug-charges    IRDMAX=   8478
   dimension x,y,z NGX =    54 NGY =   54 NGZ =   54
   dimension x,y,z NGXF=   108 NGYF=  108 NGZF=  108
   support grid    NGXF=   108 NGYF=  108 NGZF=  108
   ions per type =              35   1  36
 NGX,Y,Z   is equivalent  to a cutoff of   9.67,  9.67,  9.06 a.u.
 NGXF,Y,Z  is equivalent  to a cutoff of  19.33, 19.33, 18.12 a.u.


 I would recommend the setting:
   dimension x,y,z NGX =    51 NGY =   51 NGZ =   54
 SYSTEM =  unknown system                          
 POSCAR =  20.0% N(Distort)=2 ~[0.1,0.2,0.5]       

 Startparameter for this run:
   NWRITE =      2    write-flag & timer
   PREC   = normal    normal or accurate (medium, high low for compatibility)
   ISTART =      1    job   : 0-new  1-cont  2-samecut
   ICHARG =      0    charge: 1-file 2-atom 10-const
   ISPIN  =      2    spin polarized calculation?
   LNONCOLLINEAR =      F non collinear calculations
   LSORBIT =      F    spin-orbit coupling
   INIWAV =      1    electr: 0-lowe 1-rand  2-diag
   LASPH  =      F    aspherical Exc in radial PAW
   METAGGA=      F    non-selfconsistent MetaGGA calc.

 Electronic Relaxation 1
   ENCUT  =  500.0 eV  36.75 Ry    6.06 a.u.  16.93 16.93 18.07*2*pi/ulx,y,z
   ENINI  =  500.0     initial cutoff
   ENAUG  =  627.1 eV  augmentation charge cutoff
   NELM   =    300;   NELMIN=  8; NELMDL=  0     # of ELM steps 
   EDIFF  = 0.1E-04   stopping-criterion for ELM
   LREAL  =      T    real-space projection
   NLSPLINE    = F    spline interpolate recip. space projectors
   LCOMPAT=      F    compatible to vasp.4.4
   GGA_COMPAT  = T    GGA compatible to vasp.4.4-vasp.4.6
   LMAXPAW     = -100 max onsite density
   LMAXMIX     =    2 max onsite mixed and CHGCAR
   VOSKOWN=      0    Vosko Wilk Nusair interpolation
   ROPT   =   -0.00050  -0.00050  -0.00050
 Ionic relaxation
   EDIFFG = -.2E-01   stopping-criterion for IOM
   NSW    =    500    number of steps for IOM
   NBLOCK =      1;   KBLOCK =    500    inner block; outer block 
   IBRION =      2    ionic relax: 0-MD 1-quasi-New 2-CG
   NFREE  =      1    steps in history (QN), initial steepest desc. (CG)
   ISIF   =      2    stress and relaxation
   IWAVPR =     11    prediction:  0-non 1-charg 2-wave 3-comb
   ISYM   =      3    0-nonsym 1-usesym 2-fastsym
   LCORR  =      T    Harris-Foulkes like correction to forces

   POTIM  = 0.0200    time-step for ionic-motion
   TEIN   =    0.0    initial temperature
   TEBEG  =    0.0;   TEEND  =   0.0 temperature during run
   SMASS  =  -3.00    Nose mass-parameter (am)
   estimated Nose-frequenzy (Omega)   =  0.10E-29 period in steps =****** mass=  -0.197E-26a.u.
   SCALEE = 1.0000    scale energy and forces
   NPACO  =    256;   APACO  = 16.0  distance and # of slots for P.C.
   PSTRESS=    0.0 pullay stress

  Mass of Ions in am
   POMASS =  26.98 28.09 14.00
  Ionic Valenz
   ZVAL   =   3.00  4.00  5.00
  Atomic Wigner-Seitz radii
   RWIGS  =  -1.00 -1.00 -1.00
  virtual crystal weights 
   VCA    =   1.00  1.00  1.00
   NELECT =     289.0000    total number of electrons
   NUPDOWN=      -1.0000    fix difference up-down

 DOS related values:
   EMIN   =  10.00;   EMAX   =-10.00  energy-range for DOS
   EFERMI =   0.00
   ISMEAR =     0;   SIGMA  =   0.02  broadening in eV -4-tet -1-fermi 0-gaus

 Electronic relaxation 2 (details)
   IALGO  =     58    algorithm
   LDIAG  =      T    sub-space diagonalisation (order eigenvalues)
   LSUBROT=      F    optimize rotation matrix (better conditioning)
   TURBO    =      0    0=normal 1=particle mesh
   IRESTART =      0    0=no restart 2=restart with 2 vectors
   NREBOOT  =      0    no. of reboots
   NMIN     =      0    reboot dimension
   EREF     =   0.00    reference energy to select bands
   IMIX   =      4    mixing-type and parameters
     AMIX     =   0.40;   BMIX     =  1.00
     AMIX_MAG =   1.60;   BMIX_MAG =  1.00
     AMIN     =   0.10
     WC   =   100.;   INIMIX=   1;  MIXPRE=   1;  MAXMIX= -45

 Intra band minimization:
   WEIMIN = 0.0010     energy-eigenvalue tresh-hold
   EBREAK =  0.11E-07  absolut break condition
   DEPER  =   0.30     relativ break condition  

   TIME   =   0.40     timestep for ELM

  volume/ion in A,a.u.               =      10.28        69.37
  Fermi-wavevector in a.u.,A,eV,Ry     =   1.196547  2.261146 19.479790  1.431724
  Thomas-Fermi vector in A             =   2.332484

 Write flags
   LWAVE  =      F    write WAVECAR
   LCHARG =      F    write CHGCAR
   LVTOT  =      F    write LOCPOT, total local potential
   LVHAR  =      F    write LOCPOT, Hartree potential only
   LELF   =      F    write electronic localiz. function (ELF)
   LORBIT =      0    0 simple, 1 ext, 2 COOP (PROOUT)


 Dipole corrections
   LMONO  =      F    monopole corrections only (constant potential shift)
   LDIPOL =      F    correct potential (dipole corrections)
   IDIPOL =      0    1-x, 2-y, 3-z, 4-all directions 
   EPSILON=  1.0000000 bulk dielectric constant

 Exchange correlation treatment:
   GGA     =    --    GGA type
   LEXCH   =     8    internal setting for exchange type
   VOSKOWN=      0    Vosko Wilk Nusair interpolation
   EXXOEP  =     0    0=HF, 1=EXX-LHF (local Hartree Fock) 2=EXX OEP
   LHFCALC =     T    Hartree Fock is set to
   LSYMGRAD=     F    symmetrize gradient (conserves proper symmetry)
   PRECFOCK=fast      Normal, Fast or Accurate (Low or Medium for compatibility)
   LRHFCALC=     F    long range Hartree Fock
   LRSCOR  =     F    long range correlation only (use DFT for short range part)
   LTHOMAS =     F    Thomas Fermi screening in HF
   LMODELHF=     F    short range full HF, long range fraction AEXX
   ENCUT4O =  -1.0   cutoff for four orbital integrals eV
   LMAXFOCK=     4    L truncation for augmentation on plane wave grid
   LMAXFOCKAE=  -1    L truncation for all-electron charge restoration on plane wave grid
   NMAXFOCKAE=   1    number of basis functions for all-electron charge restoration
   LFOCKAEDFT=     F  apply the AE augmentation even for DFT
   NKREDX  =     1    reduce k-point grid by
   NKREDY  =     1    reduce k-point grid by
   NKREDZ  =     1    reduce k-point grid by
   SHIFTRED=     F    shift reduced grid of Gamma
   HFKIDENT=     F    idential grid for each k-point
   ODDONLY =     F    use only odd q-grid points
   EVENONLY=     F    use only even q-grid points
   HFALPHA =   -1.0000 decay constant for conv. correction
   MCALPHA =    0.0000 extent of test-charge in conv. correction in multipole expansion
   AEXX    =    0.3300 exact exchange contribution
   HFSCREEN=    0.2000 screening length (either q_TF or 0.3 A-1)
   HFSCREENC=   0.2000 screening length for correlation (either q_TF or 0.3 A-1)
   HFRCUT  =    0.0000 spherical cutoff for potential kernel
   ALDAX   =    0.6700 LDA exchange part
   AGGAX   =    0.6700 GGA exchange part
   ALDAC   =    1.0000 LDA correlation
   AGGAC   =    1.0000 GGA correlation
   NBANDSGWLOW=     1    first orbital included in HF term
   ENCUTFOCK=  -1.0 apply spherical cutoff to Coloumb kernel
 Linear response parameters
   LEPSILON=     F    determine dielectric tensor
   LRPA    =     F    only Hartree local field effects (RPA)
   LNABLA  =     F    use nabla operator in PAW spheres
   LVEL    =     F    velocity operator in full k-point grid
   LINTERFAST=   F  fast interpolation
   KINTER  =     0    interpolate to denser k-point grid
   CSHIFT  =0.1000    complex shift for real part using Kramers Kronig
   OMEGAMAX=  -1.0    maximum frequency
   DEG_THRESHOLD= 0.2000000E-02 threshold for treating states as degnerate
   RTIME   =    0.100 relaxation time in fs

 Orbital magnetization related:
   ORBITALMAG=     F  switch on orbital magnetization
   LCHIMAG   =     F  perturbation theory with respect to B field
   DQ        =  0.001000  dq finite difference perturbation B field



--------------------------------------------------------------------------------------------------------


 conjugate gradient relaxation of ions
 charge density and potential will be updated during run
 spin polarized calculation
 Conjugate gradient for all bands (Freysoldt, et al. PRB 79, 241103 (2009))
 preconditioned conjugated gradient                                        
 perform sub-space diagonalisation
    before iterative eigenvector-optimisation
 modified Broyden-mixing scheme, WC =      100.0
 initial mixing is a Kerker type mixing with AMIX =  0.4000 and BMIX =      1.0000
 Hartree-type preconditioning will be used
 using additional bands           79
 real space projection scheme for non local part
 use partial core corrections
 no Harris-corrections to forces 
 use gradient corrections 
 use of overlap-Matrix (Vanderbilt PP)
 Gauss-broadening in eV      SIGMA  =   0.02


--------------------------------------------------------------------------------------------------------


  energy-cutoff  :      500.00
  volume of cell :      740.17
      direct lattice vectors                 reciprocal lattice vectors
     9.287201881  0.000000000  0.000000000     0.107675058  0.062166243 -0.000000000
    -4.643602965  8.042953793  0.000000000     0.000000000  0.124332431  0.000000000
     0.000000000  0.000000000  9.909069061     0.000000000 -0.000000000  0.100917654

  length of vectors
     9.287201881  9.287203789  9.909069061     0.124332457  0.124332431  0.100917654



 old parameters found on file WAVECAR:
  energy-cutoff  :      500.00
  volume of cell :      740.17
      direct lattice vectors                 reciprocal lattice vectors
     9.287201881  0.000000000  0.000000000     0.107675058  0.062166243 -0.000000000
    -4.643602965  8.042953793  0.000000000     0.000000000  0.124332431  0.000000000
     0.000000000  0.000000000  9.909069061     0.000000000 -0.000000000  0.100917654

  length of vectors


 k-points in units of 2pi/SCALE and weight: MgAlN                                   
   0.00000000  0.00000000  0.00000000       0.125
   0.05383753  0.03108312  0.00000000       0.125
   0.00000000  0.06216622  0.00000000       0.125
   0.05383753  0.09324934  0.00000000       0.125
   0.00000000  0.00000000  0.05045883       0.125
   0.05383753  0.03108312  0.05045883       0.125
   0.00000000  0.06216622  0.05045883       0.125
   0.05383753  0.09324934  0.05045883       0.125

 k-points in reciprocal lattice and weights: MgAlN                                   
   0.00000000  0.00000000  0.00000000       0.125
   0.50000000  0.00000000  0.00000000       0.125
   0.00000000  0.50000000  0.00000000       0.125
   0.50000000  0.50000000  0.00000000       0.125
   0.00000000  0.00000000  0.50000000       0.125
   0.50000000  0.00000000  0.50000000       0.125
   0.00000000  0.50000000  0.50000000       0.125
   0.50000000  0.50000000  0.50000000       0.125

 position of ions in fractional coordinates (direct lattice) 
   0.11360278  0.22534390  0.99724387
   0.11255462  0.55877314  0.49806922
   0.11376190  0.55850365  0.99750164
   0.11238299  0.89126314  0.49829252
   0.11347944  0.89210863  0.99746552
   0.44793357  0.22681173  0.49824834
   0.44681671  0.22542920  0.99746534
   0.44818603  0.55869483  0.49809676
   0.44697591  0.55844006  0.99741260
   0.44703068  0.89228103  0.49846235
   0.44701756  0.89211586  0.99726927
   0.78056004  0.22677089  0.49809110
   0.78049359  0.22531369  0.99749537
   0.78044114  0.55881571  0.49776773
   0.78035483  0.55852702  0.99773171
   0.78054464  0.89109598  0.49804294
   0.78044406  0.89204271  0.99737684
   0.22411725  0.11494283  0.24631379
   0.22561943  0.11352972  0.74688789
   0.22422672  0.44644710  0.24627859
   0.22594783  0.44955351  0.74677277
   0.22517225  0.78134142  0.24703446
   0.22505570  0.78118056  0.74789398
   0.55781081  0.11394137  0.24696756
   0.55833297  0.11443046  0.74788693
   0.55821737  0.44780488  0.24723615
   0.55871623  0.44798110  0.74821412
   0.55770797  0.78130413  0.24686505
   0.55825121  0.78119241  0.74782398
   0.89268908  0.11499441  0.24622785
   0.88980089  0.11346411  0.74673009
   0.89144534  0.44780272  0.24721557
   0.89168458  0.44783953  0.74823520
   0.89130234  0.78085787  0.24720705
   0.89140904  0.78069269  0.74817863
   0.11363790  0.22564775  0.49848006
   0.11366711  0.22548760  0.18718125
   0.11375993  0.22557510  0.67805766
   0.11423224  0.55848231  0.18907662
   0.11385756  0.55878559  0.68820537
   0.11400685  0.89300426  0.18897515
   0.11361372  0.89230508  0.68833886
   0.44610665  0.22516199  0.18899038
   0.44705551  0.22573374  0.68836443
   0.44615703  0.55843768  0.18897214
   0.44723812  0.55870973  0.68816420
   0.44691661  0.89228189  0.18791343
   0.44721311  0.89233288  0.68907529
   0.78077523  0.22509510  0.18904508
   0.78076830  0.22571105  0.68820587
   0.78033214  0.55879703  0.18851930
   0.78067300  0.55880151  0.68859356
   0.78070361  0.89300821  0.18896406
   0.78069858  0.89219234  0.68812398
   0.21851040  0.12081532  0.44118431
   0.22421495  0.11477884  0.93708182
   0.21858777  0.43536814  0.44115938
   0.22444029  0.44659450  0.93699536
   0.22501667  0.78139547  0.43800609
   0.22452548  0.78086140  0.93879383
   0.55802363  0.11435656  0.43795107
   0.55830851  0.11464304  0.93879564
   0.55808984  0.44774792  0.43806018
   0.55818870  0.44759731  0.93894313
   0.55799667  0.78126861  0.43783885
   0.55824011  0.78080045  0.93874625
   0.90394289  0.12073773  0.44114370
   0.89244492  0.11467086  0.93697555
   0.89167522  0.44774421  0.43801280
   0.89166808  0.44750868  0.93903209
   0.89157239  0.78124148  0.43801584
   0.89140221  0.78084538  0.93893586

 position of ions in cartesian coordinates  (Angst):
   0.00864435  1.81243055  9.88175842
  -1.54940314  4.49418656  4.93540233
  -1.53693954  4.49201908  9.88431267
  -3.09494867  7.16838824  4.93761500
  -3.08869186  7.17518851  9.88395476
   3.10682593  1.82423625  4.93717720
   3.10287332  1.81311666  9.88395290
   1.56803718  4.49355671  4.93567516
   1.55798162  4.49150762  9.88343032
   0.00826537  7.17657506  4.93929783
   0.00891044  7.17524666  9.88201007
   6.19618474  1.82390779  4.93561909
   6.20233423  1.81218758  9.88425054
   4.65319617  4.49452890  4.93241476
   4.65373511  4.49220698  9.88659240
   3.11117972  7.16704377  4.93514184
   3.10584937  7.17465828  9.88307596
   1.54767329  0.92447983  2.44074039
   1.56818627  0.91311426  7.40096373
   0.00931574  3.59075342  2.44039156
   0.01087509  3.61573814  7.39982296
  -1.53701917  6.28429290  2.44788153
  -1.53735461  6.28299916  7.41093312
   4.65140310  0.91642520  2.44721866
   4.65398135  0.92035892  7.41086327
   3.10484937  3.60167395  2.44988007
   3.10866400  3.60309132  7.41410541
   1.55148034  6.28399304  2.44620287
   1.55704433  6.28309442  7.41023946
   7.75659532  0.92489476  2.43988878
   7.73687823  0.91258661  7.39940000
   6.19961481  3.60165658  2.44967615
   6.20166573  3.60195265  7.41431426
   4.65171086  6.28040376  2.44959168
   4.65346884  6.27907520  7.41375376
   0.00755957  1.81487443  4.93947338
   0.00857446  1.81358636  1.85479196
   0.00903020  1.81429014  6.71892015
  -1.53247229  4.49184744  1.87357327
  -1.53736026  4.49428668  6.81947457
  -3.08795260  7.18239199  1.87256782
  -3.08835696  7.17676855  6.82079730
   3.09751961  1.81096749  1.87271868
   3.10367692  1.81556608  6.82105065
   1.55038756  4.49148848  1.87253797
   1.55916455  4.49367653  6.81906661
   0.00720199  7.17658197  1.86204713
   0.00971882  7.17699212  6.82809464
   6.20596491  1.81042952  1.87326080
   6.20304034  1.81538354  6.81947949
   4.65227063  4.49437867  1.86805073
   4.65541542  4.49441469  6.82332109
   3.10377651  7.18242373  1.87245791
   3.10751828  7.17586179  6.81866808
   1.46833181  0.97171206  4.37172576
   1.54934213  0.92316091  9.28560847
   0.00839196  3.50164581  4.37147880
   0.01061477  3.59193890  9.28475169
  -1.53871506  6.28472764  4.34023256
  -1.54079683  6.28043219  9.30257293
   4.65145167  0.91976456  4.33968740
   4.65276714  0.92206866  9.30259086
   3.10392945  3.60121587  4.34076854
   3.10554697  3.60000451  9.30405237
   1.55432654  6.28370731  4.33857542
   1.55876133  6.27994195  9.30210140
   7.83444202  0.97108796  4.37132336
   7.75583018  0.92229244  9.28455546
   6.20202140  3.60118600  4.34029907
   6.20304884  3.59929163  9.30493384
   4.65243751  6.28348913  4.34032921
   4.65269633  6.28030331  9.30398025



--------------------------------------------------------------------------------------------------------


 k-point  1 :   0.0000 0.0000 0.0000  plane waves:   18757
 k-point  2 :   0.5000 0.0000 0.0000  plane waves:   18798
 k-point  3 :   0.0000 0.5000 0.0000  plane waves:   18798
 k-point  4 :   0.5000 0.5000 0.0000  plane waves:   18798
 k-point  5 :   0.0000 0.0000 0.5000  plane waves:   18732
 k-point  6 :   0.5000 0.0000 0.5000  plane waves:   18816
 k-point  7 :   0.0000 0.5000 0.5000  plane waves:   18816
 k-point  8 :   0.5000 0.5000 0.5000  plane waves:   18816

 maximum and minimum number of plane-waves per node :      4718     4675

 maximum number of plane-waves:     18816
 maximum index in each direction: 
   IXMAX=   16   IYMAX=   16   IZMAX=   18
   IXMIN=  -17   IYMIN=  -17   IZMIN=  -18

 WARNING: aliasing errors must be expected set NGX to  68 to avoid them
 WARNING: aliasing errors must be expected set NGY to  68 to avoid them
 WARNING: aliasing errors must be expected set NGZ to  74 to avoid them
 aliasing errors are usually negligible using standard VASP settings
 and one can safely disregard these warnings

 real space projection operators:
  total allocation   :       6379.44 KBytes
  max/ min on nodes  :       1639.25       1548.88


 parallel 3D FFT for wavefunctions:
    minimum data exchange during FFTs selected (reduces bandwidth)
 parallel 3D FFT for charge:
    minimum data exchange during FFTs selected (reduces bandwidth)


 FFT grid for exact exchange (Hartree Fock) 
  NGX = 36; NGY = 36; NGZ = 40


 Radii for the augmentation spheres in the non-local exchange
 for species   1 augmentation radius   1.405 (default was   1.041)
       energy cutoff for augmentation   2000.0
 for species   2 augmentation radius   1.335 (default was   0.989)
       energy cutoff for augmentation   2000.0
 for species   3 augmentation radius   0.957 (default was   0.709)
       energy cutoff for augmentation   2000.0

 real space projection operators:
  total allocation   :       2731.43 KBytes
  max/ min on nodes  :        691.88        670.64

 Maximum index for augmentation-charges in exchange          218
  SETUP_FOCK is finished

 total amount of memory used by VASP on root node    69429. kBytes
========================================================================

   base      :      30000. kBytes
   nonlr-proj:       6186. kBytes
   fftplans  :       2473. kBytes
   grid      :       4332. kBytes
   one-center:        110. kBytes
   HF        :          9. kBytes
   wavefun   :      26319. kBytes

     INWAV:  cpu time   18.3174: real time   18.3205
 Broyden mixing: mesh for mixing (old mesh)
   NGX = 33   NGY = 33   NGZ = 37
  (NGX  =108   NGY  =108   NGZ  =108)
  gives a total of  40293 points

 charge density for first step will be calculated from the start-wavefunctions


--------------------------------------------------------------------------------------------------------


 Maximum index for non-local projection operator          503
 Maximum index for augmentation-charges          131 (set IRDMAX)


--------------------------------------------------------------------------------------------------------


 initial charge from wavefunction
 First call to EWALD:  gamma=   0.196
 Maximum number of real-space cells 3x 3x 3
 Maximum number of reciprocal cells 3x 3x 3

 FEWALD executed in parallel
    FEWALD:  cpu time    0.0057: real time    0.0057


----------------------------------------- Iteration    1(   1)  ---------------------------------------


    POTLOK:  cpu time    0.0696: real time    0.0697
    SETDIJ:  cpu time    0.0479: real time    0.0479
    TRIAL :  cpu time   31.2924: real time   31.2982
    CORREC:  cpu time   31.4585: real time   31.4623
    CHARGE:  cpu time    0.0268: real time    0.0268
    --------------------------------------------
      LOOP:  cpu time   62.9205: real time   62.9302

 eigenvalue-minimisations  :     0
 total energy-change (2. order) :-0.6550068E+03  (-0.2528254E+01)
 number of electron     289.0000119 magnetization       0.7276487
 augmentation part        7.3173245 magnetization      -0.0265808

 Free energy of the ion-electron system (eV)
  ---------------------------------------------------
  alpha Z        PSCENC =       290.88492991
  Ewald energy   TEWEN  =    -10756.47096661
  -Hartree energ DENC   =     -2799.71467537
  -exchange      EXHF   =       857.05671036
  -V(xc)+E(xc)   XCENC  =      -129.50044197
  PAW double counting   =     28163.90933520   -27370.43181106
  entropy T*S    EENTRO =        -0.00071820
  eigenvalues    EBANDS =      -261.82151893
  atomic energy  EATOM  =     11351.08296830
  ---------------------------------------------------
  free energy    TOTEN  =      -655.00680542 eV

  energy without entropy =     -655.00608722  energy(sigma->0) =     -655.00644632
  exchange ACFDT corr.  =        -0.00206575  see jH, gK, PRB 81, 115126


--------------------------------------------------------------------------------------------------------




----------------------------------------- Iteration    1(   2)  ---------------------------------------


    POTLOK:  cpu time    0.0570: real time    0.0570
    SETDIJ:  cpu time    0.0466: real time    0.0466
    TRIAL :  cpu time   31.3409: real time   31.3451
    CORREC:  cpu time   31.3718: real time   31.3757
    CHARGE:  cpu time    0.0222: real time    0.0222
    --------------------------------------------
      LOOP:  cpu time   62.8400: real time   62.8819

 eigenvalue-minimisations  :     0
 total energy-change (2. order) :-0.2534309E+01  (-0.7359735E+00)
 number of electron     289.0000122 magnetization       0.7491326
 augmentation part        7.6942952 magnetization      -0.0273069

 Free energy of the ion-electron system (eV)
  ---------------------------------------------------
  alpha Z        PSCENC =       290.88492991
  Ewald energy   TEWEN  =    -10756.47096661
  -Hartree energ DENC   =     -2774.31842758
  -exchange      EXHF   =       858.05278459
  -V(xc)+E(xc)   XCENC  =      -130.08954028
  PAW double counting   =     54965.64398502   -54171.31147883
  entropy T*S    EENTRO =        -0.00003935
  eigenvalues    EBANDS =      -291.01465119
  atomic energy  EATOM  =     11351.08296830
  ---------------------------------------------------
  free energy    TOTEN  =      -657.54111487 eV

  energy without entropy =     -657.54107553  energy(sigma->0) =     -657.54109520
  exchange ACFDT corr.  =        -0.00102630  see jH, gK, PRB 81, 115126


--------------------------------------------------------------------------------------------------------




----------------------------------------- Iteration    1(   3)  ---------------------------------------


    POTLOK:  cpu time    0.0592: real time    0.0592
    SETDIJ:  cpu time    0.0436: real time    0.0436
    TRIAL :  cpu time   31.3110: real time   31.3144
    CORREC:  cpu time   31.3106: real time   31.3147
    CHARGE:  cpu time    0.0233: real time    0.0233
    --------------------------------------------
      LOOP:  cpu time   62.7489: real time   62.7906

 eigenvalue-minimisations  :     0
 total energy-change (2. order) :-0.7527559E+00  (-0.2674535E+00)
 number of electron     289.0000122 magnetization       0.7491975
 augmentation part        7.7765691 magnetization      -0.0275606

 Free energy of the ion-electron system (eV)
  ---------------------------------------------------
  alpha Z        PSCENC =       290.88492991
  Ewald energy   TEWEN  =    -10756.47096661
  -Hartree energ DENC   =     -2828.13206385
  -exchange      EXHF   =       862.93406080
  -V(xc)+E(xc)   XCENC  =      -127.35720306
  PAW double counting   =     92830.58337367   -92036.70051409
  entropy T*S    EENTRO =        -0.00003562
  eigenvalues    EBANDS =      -245.11841646
  atomic energy  EATOM  =     11351.08296830
  ---------------------------------------------------
  free energy    TOTEN  =      -658.29387074 eV

  energy without entropy =     -658.29383512  energy(sigma->0) =     -658.29385293
  exchange ACFDT corr.  =        -0.00003696  see jH, gK, PRB 81, 115126


--------------------------------------------------------------------------------------------------------




----------------------------------------- Iteration    1(   4)  ---------------------------------------


    POTLOK:  cpu time    0.0563: real time    0.0563
    SETDIJ:  cpu time    0.0447: real time    0.0447
    TRIAL :  cpu time   31.2158: real time   31.2201
    CORREC:  cpu time   31.3284: real time   31.3321
    CHARGE:  cpu time    0.0238: real time    0.0238
    --------------------------------------------
      LOOP:  cpu time   62.6703: real time   62.7130

 eigenvalue-minimisations  :     0
 total energy-change (2. order) :-0.2667890E+00  (-0.4636893E-01)
 number of electron     289.0000122 magnetization       0.7495514
 augmentation part        7.8085452 magnetization      -0.0279258

 Free energy of the ion-electron system (eV)
  ---------------------------------------------------
  alpha Z        PSCENC =       290.88492991
  Ewald energy   TEWEN  =    -10756.47096661
  -Hartree energ DENC   =     -2809.44272368
  -exchange      EXHF   =       861.34906376
  -V(xc)+E(xc)   XCENC  =      -128.35181249
  PAW double counting   =    122889.88913649  -122096.38154962
  entropy T*S    EENTRO =        -0.00002095
  eigenvalues    EBANDS =      -261.11967016
  atomic energy  EATOM  =     11351.08296830
  ---------------------------------------------------
  free energy    TOTEN  =      -658.56065973 eV

  energy without entropy =     -658.56063878  energy(sigma->0) =     -658.56064925
  exchange ACFDT corr.  =        -0.00003327  see jH, gK, PRB 81, 115126


--------------------------------------------------------------------------------------------------------




----------------------------------------- Iteration    1(   5)  ---------------------------------------


    POTLOK:  cpu time    0.0589: real time    0.0589
    SETDIJ:  cpu time    0.0445: real time    0.0445
    TRIAL :  cpu time   31.2400: real time   31.2443
    CORREC:  cpu time   31.2565: real time   31.2602
    CHARGE:  cpu time    0.0236: real time    0.0236
    --------------------------------------------
      LOOP:  cpu time   62.6247: real time   62.6666

 eigenvalue-minimisations  :     0
 total energy-change (2. order) :-0.4629703E-01  (-0.1375163E-01)
 number of electron     289.0000122 magnetization       0.7496070
 augmentation part        7.8171823 magnetization      -0.0283264

 Free energy of the ion-electron system (eV)
  ---------------------------------------------------
  alpha Z        PSCENC =       290.88492991
  Ewald energy   TEWEN  =    -10756.47096661
  -Hartree energ DENC   =     -2813.57813048
  -exchange      EXHF   =       861.59981498
  -V(xc)+E(xc)   XCENC  =      -128.15656680
  PAW double counting   =    138114.97988435  -137321.46633919
  entropy T*S    EENTRO =        -0.00001855
  eigenvalues    EBANDS =      -257.48253027
  atomic energy  EATOM  =     11351.08296830
  ---------------------------------------------------
  free energy    TOTEN  =      -658.60695675 eV

  energy without entropy =     -658.60693820  energy(sigma->0) =     -658.60694748
  exchange ACFDT corr.  =        -0.00001867  see jH, gK, PRB 81, 115126


--------------------------------------------------------------------------------------------------------




----------------------------------------- Iteration    1(   6)  ---------------------------------------


    POTLOK:  cpu time    0.0590: real time    0.0590
    SETDIJ:  cpu time    0.0428: real time    0.0428
    TRIAL :  cpu time   31.2940: real time   31.2976
    CORREC:  cpu time   31.3024: real time   31.3059
    CHARGE:  cpu time    0.0228: real time    0.0229
    --------------------------------------------
      LOOP:  cpu time   62.7223: real time   62.7636

 eigenvalue-minimisations  :     0
 total energy-change (2. order) :-0.1373927E-01  (-0.4037020E-02)
 number of electron     289.0000122 magnetization       0.7496658
 augmentation part        7.8202358 magnetization      -0.0285591

 Free energy of the ion-electron system (eV)
  ---------------------------------------------------
  alpha Z        PSCENC =       290.88492991
  Ewald energy   TEWEN  =    -10756.47096661
  -Hartree energ DENC   =     -2811.73768526
  -exchange      EXHF   =       861.42764078
  -V(xc)+E(xc)   XCENC  =      -128.24934206
  PAW double counting   =    145663.26933086  -144869.74983699
  entropy T*S    EENTRO =        -0.00001599
  eigenvalues    EBANDS =      -259.07771639
  atomic energy  EATOM  =     11351.08296830
  ---------------------------------------------------
  free energy    TOTEN  =      -658.62069602 eV

  energy without entropy =     -658.62068003  energy(sigma->0) =     -658.62068802
  exchange ACFDT corr.  =        -0.00001640  see jH, gK, PRB 81, 115126


--------------------------------------------------------------------------------------------------------




----------------------------------------- Iteration    1(   7)  ---------------------------------------


    POTLOK:  cpu time    0.0590: real time    0.0590
    SETDIJ:  cpu time    0.0448: real time    0.0448
    TRIAL :  cpu time   31.2162: real time   31.2205
    CORREC:  cpu time   31.3400: real time   31.3439
    CHARGE:  cpu time    0.0272: real time    0.0272
    --------------------------------------------
      LOOP:  cpu time   62.6885: real time   62.7310

 eigenvalue-minimisations  :     0
 total energy-change (2. order) :-0.4032740E-02  (-0.1049039E-02)
 number of electron     289.0000122 magnetization       0.7497040
 augmentation part        7.8200933 magnetization      -0.0287208

 Free energy of the ion-electron system (eV)
  ---------------------------------------------------
  alpha Z        PSCENC =       290.88492991
  Ewald energy   TEWEN  =    -10756.47096661
  -Hartree energ DENC   =     -2811.78309794
  -exchange      EXHF   =       861.41894704
  -V(xc)+E(xc)   XCENC  =      -128.24582483
  PAW double counting   =    149291.59474281  -148498.07619843
  entropy T*S    EENTRO =        -0.00001431
  eigenvalues    EBANDS =      -259.03021301
  atomic energy  EATOM  =     11351.08296830
  ---------------------------------------------------
  free energy    TOTEN  =      -658.62472876 eV

  energy without entropy =     -658.62471445  energy(sigma->0) =     -658.62472161
  exchange ACFDT corr.  =        -0.00001396  see jH, gK, PRB 81, 115126


--------------------------------------------------------------------------------------------------------




----------------------------------------- Iteration    1(   8)  ---------------------------------------


    POTLOK:  cpu time    0.0587: real time    0.0587
    SETDIJ:  cpu time    0.0442: real time    0.0442
    TRIAL :  cpu time   31.2491: real time   31.2524
    CORREC:  cpu time   31.2480: real time   31.2516
    CHARGE:  cpu time    0.0232: real time    0.0232
    --------------------------------------------
      LOOP:  cpu time   62.6245: real time   62.6656

 eigenvalue-minimisations  :     0
 total energy-change (2. order) :-0.1048401E-02  (-0.2024513E-03)
 number of electron     289.0000122 magnetization       0.7497271
 augmentation part        7.8196191 magnetization      -0.0287703

 Free energy of the ion-electron system (eV)
  ---------------------------------------------------
  alpha Z        PSCENC =       290.88492991
  Ewald energy   TEWEN  =    -10756.47096661
  -Hartree energ DENC   =     -2811.19313210
  -exchange      EXHF   =       861.35838527
  -V(xc)+E(xc)   XCENC  =      -128.27490732
  PAW double counting   =    150452.33895500  -149658.82526435
  entropy T*S    EENTRO =        -0.00001328
  eigenvalues    EBANDS =      -259.52673096
  atomic energy  EATOM  =     11351.08296830
  ---------------------------------------------------
  free energy    TOTEN  =      -658.62577716 eV

  energy without entropy =     -658.62576388  energy(sigma->0) =     -658.62577052
  exchange ACFDT corr.  =        -0.00001237  see jH, gK, PRB 81, 115126


--------------------------------------------------------------------------------------------------------




----------------------------------------- Iteration    1(   9)  ---------------------------------------


    POTLOK:  cpu time    0.0591: real time    0.0591
    SETDIJ:  cpu time    0.0438: real time    0.0438
    TRIAL :  cpu time   31.2229: real time   31.2261
    CORREC:  cpu time   31.2792: real time   31.2827
    CHARGE:  cpu time    0.0242: real time    0.0242
    --------------------------------------------
      LOOP:  cpu time   62.6303: real time   62.6711

 eigenvalue-minimisations  :     0
 total energy-change (2. order) :-0.2002985E-03  (-0.5034722E-04)
 number of electron     289.0000122 magnetization       0.7497476
 augmentation part        7.8194952 magnetization      -0.0288025

 Free energy of the ion-electron system (eV)
  ---------------------------------------------------
  alpha Z        PSCENC =       290.88492991
  Ewald energy   TEWEN  =    -10756.47096661
  -Hartree energ DENC   =     -2811.13755748
  -exchange      EXHF   =       861.34652668
  -V(xc)+E(xc)   XCENC  =      -128.27759896
  PAW double counting   =    150675.06204783  -149881.54946431
  entropy T*S    EENTRO =        -0.00001235
  eigenvalues    EBANDS =      -259.56684954
  atomic energy  EATOM  =     11351.08296830
  ---------------------------------------------------
  free energy    TOTEN  =      -658.62597746 eV

  energy without entropy =     -658.62596510  energy(sigma->0) =     -658.62597128
  exchange ACFDT corr.  =        -0.00001141  see jH, gK, PRB 81, 115126


--------------------------------------------------------------------------------------------------------




----------------------------------------- Iteration    1(  10)  ---------------------------------------


    POTLOK:  cpu time    0.0590: real time    0.0590
    SETDIJ:  cpu time    0.0440: real time    0.0440
    TRIAL :  cpu time   31.3275: real time   31.3308
    CORREC:  cpu time   31.3772: real time   31.3807
    CHARGE:  cpu time    0.0218: real time    0.0218
    --------------------------------------------
      LOOP:  cpu time   62.8306: real time   62.8714

 eigenvalue-minimisations  :     0
 total energy-change (2. order) :-0.4971116E-04  (-0.1582428E-04)
 number of electron     289.0000122 magnetization       0.7497602
 augmentation part        7.8194053 magnetization      -0.0288172

 Free energy of the ion-electron system (eV)
  ---------------------------------------------------
  alpha Z        PSCENC =       290.88492991
  Ewald energy   TEWEN  =    -10756.47096661
  -Hartree energ DENC   =     -2811.17073431
  -exchange      EXHF   =       861.34736983
  -V(xc)+E(xc)   XCENC  =      -128.27564260
  PAW double counting   =    150747.75587217  -149954.24267636
  entropy T*S    EENTRO =        -0.00001178
  eigenvalues    EBANDS =      -259.53713514
  atomic energy  EATOM  =     11351.08296830
  ---------------------------------------------------
  free energy    TOTEN  =      -658.62602717 eV

  energy without entropy =     -658.62601539  energy(sigma->0) =     -658.62602128
  exchange ACFDT corr.  =        -0.00001055  see jH, gK, PRB 81, 115126


--------------------------------------------------------------------------------------------------------




----------------------------------------- Iteration    1(  11)  ---------------------------------------


    POTLOK:  cpu time    0.0590: real time    0.0590
    SETDIJ:  cpu time    0.0436: real time    0.0436
    TRIAL :  cpu time   31.1468: real time   31.1503
    CORREC:  cpu time   31.2868: real time   31.2901
    CHARGE:  cpu time    0.0230: real time    0.0230
    --------------------------------------------
      LOOP:  cpu time   62.5604: real time   62.6012

 eigenvalue-minimisations  :     0
 total energy-change (2. order) :-0.1570782E-04  (-0.6623967E-05)
 number of electron     289.0000122 magnetization       0.7497677
 augmentation part        7.8193687 magnetization      -0.0288226

 Free energy of the ion-electron system (eV)
  ---------------------------------------------------
  alpha Z        PSCENC =       290.88492991
  Ewald energy   TEWEN  =    -10756.47096661
  -Hartree energ DENC   =     -2811.16815188
  -exchange      EXHF   =       861.34749965
  -V(xc)+E(xc)   XCENC  =      -128.27556487
  PAW double counting   =    150773.68947291  -149980.17567028
  entropy T*S    EENTRO =        -0.00001145
  eigenvalues    EBANDS =      -259.54054823
  atomic energy  EATOM  =     11351.08296830
  ---------------------------------------------------
  free energy    TOTEN  =      -658.62604288 eV

  energy without entropy =     -658.62603143  energy(sigma->0) =     -658.62603716
  exchange ACFDT corr.  =        -0.00001003  see jH, gK, PRB 81, 115126


--------------------------------------------------------------------------------------------------------




----------------------------------------- Iteration    1(  12)  ---------------------------------------


    POTLOK:  cpu time    0.0589: real time    0.0592
    SETDIJ:  cpu time    0.0436: real time    0.0436
    TRIAL :  cpu time   31.2234: real time   31.2277
    CORREC:  cpu time   31.4850: real time   31.4886
    CHARGE:  cpu time    0.0248: real time    0.0248
    --------------------------------------------
      LOOP:  cpu time   62.8370: real time   62.8791

 eigenvalue-minimisations  :     0
 total energy-change (2. order) :-0.6593428E-05  (-0.3144483E-05)
 number of electron     289.0000122 magnetization       0.7497720
 augmentation part        7.8193751 magnetization      -0.0288247

 Free energy of the ion-electron system (eV)
  ---------------------------------------------------
  alpha Z        PSCENC =       290.88492991
  Ewald energy   TEWEN  =    -10756.47096661
  -Hartree energ DENC   =     -2811.18158505
  -exchange      EXHF   =       861.34915855
  -V(xc)+E(xc)   XCENC  =      -128.27480490
  PAW double counting   =    150790.32599199  -149996.81175950
  entropy T*S    EENTRO =        -0.00001125
  eigenvalues    EBANDS =      -259.52997072
  atomic energy  EATOM  =     11351.08296830
  ---------------------------------------------------
  free energy    TOTEN  =      -658.62604947 eV

  energy without entropy =     -658.62603822  energy(sigma->0) =     -658.62604385
  exchange ACFDT corr.  =        -0.00000971  see jH, gK, PRB 81, 115126


--------------------------------------------------------------------------------------------------------


  average scaling for gradient   0.9180


 average (electrostatic) potential at core
  the test charge radii are     1.0406  0.9892  0.7089
  (the norm of the test charge is              1.0000)
       1 -66.1240       2 -66.3356       3 -66.1445       4 -66.3373       5 -66.1420
       6 -66.3375       7 -66.1442       8 -66.3365       9 -66.1438      10 -66.0987
      11 -66.0796      12 -66.3356      13 -66.1435      14 -66.1332      15 -66.0770
      16 -66.3367      17 -66.1420      18 -66.3211      19 -66.3248      20 -66.3197
      21 -66.3260      22 -66.1159      23 -66.1223      24 -66.1167      25 -66.1220
      26 -66.1213      27 -66.1134      28 -66.1162      29 -66.1233      30 -66.3195
      31 -66.3248      32 -66.1206      33 -66.1139      34 -66.1204      35 -66.1124
      36 -77.3154      37 -53.0921      38 -53.7881      39 -53.0624      40 -53.0669
      41 -53.0620      42 -53.0686      43 -53.0623      44 -53.0658      45 -53.0635
      46 -53.0680      47 -52.9663      48 -52.9863      49 -53.0624      50 -53.0680
      51 -52.9980      52 -53.0052      53 -53.0609      54 -53.0684      55 -53.7874
      56 -53.0897      57 -53.7863      58 -53.0919      59 -53.1088      60 -53.0007
      61 -53.1078      62 -53.0033      63 -53.0522      64 -52.9952      65 -53.1085
      66 -53.0035      67 -53.7859      68 -53.0913      69 -53.0495      70 -52.9944
      71 -53.0519      72 -52.9928



 E-fermi :  11.8390     XC(G=0):  -8.4322     alpha+bet :-16.1568


 spin component 1

 k-point     1 :       0.0000    0.0000    0.0000
  band No.  band energies     occupation 
      1     -12.5438      1.00000
      2     -11.6959      1.00000
      3     -11.2678      1.00000
      4     -11.0697      1.00000
      5     -10.9812      1.00000
      6     -10.9807      1.00000
      7     -10.7855      1.00000
      8     -10.7848      1.00000
      9     -10.7527      1.00000
     10     -10.4311      1.00000
     11     -10.3573      1.00000
     12     -10.3253      1.00000
     13     -10.3251      1.00000
     14     -10.0862      1.00000
     15     -10.0854      1.00000
     16     -10.0696      1.00000
     17     -10.0688      1.00000
     18     -10.0455      1.00000
     19     -10.0449      1.00000
     20     -10.0389      1.00000
     21     -10.0120      1.00000
     22      -9.8600      1.00000
     23      -9.6048      1.00000
     24      -9.6043      1.00000
     25      -9.5395      1.00000
     26      -9.4091      1.00000
     27      -9.3651      1.00000
     28      -9.3544      1.00000
     29      -9.3371      1.00000
     30      -9.3367      1.00000
     31      -9.3180      1.00000
     32      -9.2548      1.00000
     33      -9.2545      1.00000
     34      -9.2006      1.00000
     35      -9.2000      1.00000
     36      -9.1675      1.00000
     37      -2.2183      1.00000
     38      -1.6070      1.00000
     39      -0.7839      1.00000
     40      -0.7835      1.00000
     41      -0.4213      1.00000
     42      -0.4206      1.00000
     43      -0.3974      1.00000
     44      -0.3361      1.00000
     45      -0.3354      1.00000
     46      -0.3187      1.00000
     47      -0.3147      1.00000
     48      -0.2654      1.00000
     49      -0.2642      1.00000
     50      -0.2601      1.00000
     51      -0.2588      1.00000
     52      -0.2415      1.00000
     53      -0.2155      1.00000
     54      -0.2129      1.00000
     55      -0.2125      1.00000
     56      -0.1940      1.00000
     57      -0.0645      1.00000
     58       0.0030      1.00000
     59       0.0039      1.00000
     60       0.0487      1.00000
     61       0.0501      1.00000
     62       0.0707      1.00000
     63       0.0717      1.00000
     64       0.0767      1.00000
     65       0.1440      1.00000
     66       0.1446      1.00000
     67       0.1735      1.00000
     68       0.6280      1.00000
     69       0.6284      1.00000
     70       0.6291      1.00000
     71       0.7483      1.00000
     72       0.7487      1.00000
     73       0.8423      1.00000
     74       0.8433      1.00000
     75       0.8868      1.00000
     76       1.2501      1.00000
     77       1.2800      1.00000
     78       1.2805      1.00000
     79       1.2855      1.00000
     80       1.3315      1.00000
     81       1.3576      1.00000
     82       1.3582      1.00000
     83       1.4069      1.00000
     84       2.1768      1.00000
     85       2.1906      1.00000
     86       2.1913      1.00000
     87       2.3197      1.00000
     88       2.3199      1.00000
     89       2.4198      1.00000
     90       2.6585      1.00000
     91       2.6594      1.00000
     92       2.8300      1.00000
     93       2.9282      1.00000
     94       3.0026      1.00000
     95       3.0031      1.00000
     96       3.0170      1.00000
     97       3.1558      1.00000
     98       3.2138      1.00000
     99       3.2146      1.00000
    100       3.2967      1.00000
    101       3.2973      1.00000
    102       3.3449      1.00000
    103       3.3451      1.00000
    104       3.3759      1.00000
    105       3.3796      1.00000
    106       3.3804      1.00000
    107       3.4017      1.00000
    108       3.4294      1.00000
    109       3.4307      1.00000
    110       3.5752      1.00000
    111       3.5758      1.00000
    112       3.5833      1.00000
    113       3.6325      1.00000
    114       3.6672      1.00000
    115       3.6683      1.00000
    116       3.6817      1.00000
    117       3.6898      1.00000
    118       3.6902      1.00000
    119       3.6928      1.00000
    120       3.9178      1.00000
    121       4.0002      1.00000
    122       4.0008      1.00000
    123       4.0769      1.00000
    124       4.0771      1.00000
    125       4.1421      1.00000
    126       4.1434      1.00000
    127       4.1438      1.00000
    128       4.1723      1.00000
    129       4.1730      1.00000
    130       4.1764      1.00000
    131       4.1993      1.00000
    132       4.3035      1.00000
    133       4.3039      1.00000
    134       4.4251      1.00000
    135       4.4370      1.00000
    136       4.4381      1.00000
    137       4.4634      1.00000
    138       4.4643      1.00000
    139       4.4963      1.00000
    140       4.4968      1.00000
    141       4.4979      1.00000
    142       4.8382      1.00000
    143       4.8396      1.00000
    144       5.0611      1.00000
    145      11.0409      1.00000
    146      11.7080      1.00000
    147      11.7085      1.00000
    148      12.1941      0.00000
    149      12.6467      0.00000
    150      12.6490      0.00000
    151      12.7119      0.00000
    152      12.8268      0.00000
    153      12.8286      0.00000
    154      12.8348      0.00000
    155      12.8353      0.00000
    156      12.8647      0.00000
    157      12.8975      0.00000
    158      12.8988      0.00000
    159      12.9173      0.00000
    160      13.1111      0.00000
    161      13.1824      0.00000
    162      13.1831      0.00000
    163      13.2463      0.00000
    164      13.2764      0.00000
    165      13.2769      0.00000
    166      13.5166      0.00000
    167      13.5456      0.00000
    168      13.6264      0.00000
    169      13.6286      0.00000
    170      13.6668      0.00000
    171      13.7360      0.00000
    172      13.7385      0.00000
    173      13.7461      0.00000
    174      13.8268      0.00000
    175      14.4338      0.00000
    176      14.4342      0.00000
    177      14.4830      0.00000
    178      14.4842      0.00000
    179      14.6327      0.00000
    180      14.9651      0.00000
    181      14.9656      0.00000
    182      15.0041      0.00000
    183      15.1454      0.00000
    184      15.1465      0.00000
    185      15.1478      0.00000
    186      15.1931      0.00000
    187      15.1943      0.00000
    188      15.2629      0.00000
    189      15.5968      0.00000
    190      15.5974      0.00000
    191      16.5371      0.00000
    192      16.6386      0.00000
    193      16.7143      0.00000
    194      16.7152      0.00000
    195      16.8196      0.00000
    196      16.8200      0.00000
    197      16.8403      0.00000
    198      16.9114      0.00000
    199      16.9118      0.00000
    200      16.9344      0.00000
    201      16.9354      0.00000
    202      16.9414      0.00000
    203      16.9854      0.00000
    204      17.0088      0.00000
    205      17.1275      0.00000
    206      17.1284      0.00000
    207      17.6174      0.00000
    208      17.7023      0.00000
    209      17.7038      0.00000
    210      17.7044      0.00000
    211      17.7813      0.00000
    212      17.8210      0.00000
    213      17.8510      0.00000
    214      17.8518      0.00000
    215      18.0281      0.00000
    216      18.0290      0.00000
    217      18.2347      0.00000
    218      18.4850      0.00000
    219      18.4861      0.00000
    220      18.6780      0.00000
    221      18.6974      0.00000
    222      18.7536      0.00000
    223      18.7558      0.00000
    224      18.7695      0.00000

 k-point     2 :       0.5000    0.0000    0.0000
  band No.  band energies     occupation 
      1     -12.4171      1.00000
      2     -11.7987      1.00000
      3     -11.4154      1.00000
      4     -11.1793      1.00000
      5     -11.0484      1.00000
      6     -11.0004      1.00000
      7     -10.9028      1.00000
      8     -10.8418      1.00000
[...]
 pseudopotential strength for first ion, spin component:           2
  8.082  13.780   0.000  -0.000  -0.000   0.000  -0.001  -0.000
 13.780  23.491   0.000  -0.001  -0.000   0.000  -0.003  -0.000
  0.000   0.000   1.946  -0.000  -0.000   5.605  -0.000  -0.000
 -0.000  -0.001  -0.000   1.947  -0.000  -0.000   5.606  -0.000
 -0.000  -0.000  -0.000  -0.000   1.946  -0.000  -0.000   5.606
  0.000   0.000   5.605  -0.000  -0.000  16.045  -0.000  -0.000
 -0.001  -0.003  -0.000   5.606  -0.000  -0.000  16.048  -0.000
 -0.000  -0.000  -0.000  -0.000   5.606  -0.000  -0.000  16.045
 total augmentation occupancy for first ion, spin component:           1
 42.132 -21.268  -0.008   0.071  -0.003   0.002  -0.012   0.001
-21.268  10.738   0.004  -0.036   0.002  -0.001   0.006  -0.001
 -0.008   0.004   2.595  -0.000   0.002  -0.373   0.000  -0.000
  0.071  -0.036  -0.000   2.524  -0.000   0.000  -0.363   0.000
 -0.003   0.002   0.002  -0.000   2.596  -0.000   0.000  -0.373
  0.002  -0.001  -0.373   0.000  -0.000   0.054  -0.000   0.000
 -0.012   0.006   0.000  -0.363   0.000  -0.000   0.052  -0.000
  0.001  -0.001  -0.000   0.000  -0.373   0.000  -0.000   0.054
 total augmentation occupancy for first ion, spin component:           2
  0.072  -0.035  -0.000   0.019  -0.000   0.000  -0.002   0.000
 -0.035   0.017   0.000  -0.009   0.000  -0.000   0.001  -0.000
 -0.000   0.000   0.006  -0.000  -0.000  -0.001   0.000   0.000
  0.019  -0.009  -0.000   0.005   0.000   0.000  -0.001  -0.000
 -0.000   0.000  -0.000   0.000   0.006   0.000  -0.000  -0.001
  0.000  -0.000  -0.001   0.000   0.000   0.000  -0.000  -0.000
 -0.002   0.001   0.000  -0.001  -0.000  -0.000   0.000   0.000
  0.000  -0.000   0.000  -0.000  -0.001  -0.000   0.000   0.000


------------------------ aborting loop because EDIFF is reached ----------------------------------------


    FORLOC:  cpu time    0.0300: real time    0.0300
    FORHF :  cpu time   66.4114: real time   66.4163
    FORNL :  cpu time    0.0594: real time    0.0594
    STRESS:  cpu time    0.1846: real time    0.1846
    FORCOR:  cpu time    0.0546: real time    0.0547
    OFIELD:  cpu time    0.0001: real time    0.0001

  FORCE on cell =-STRESS in cart. coord.  units (eV):
  Direction    XX          YY          ZZ          XY          YZ          ZX
  --------------------------------------------------------------------------------------
  Alpha Z   290.88493   290.88493   290.88493
  Ewald   -3622.52778 -3622.75645 -3510.01371     0.11304     0.38265     0.06314
  Hartree   906.12240   906.25832  1000.01648    -0.05793     0.01948    -0.00505
  E(xc)    -781.12242  -781.11821  -779.48681    -0.00189    -0.00326    -0.00032
  Local    -888.80859  -888.74993 -1096.60268    -0.03487    -0.37948    -0.04978
  n-local   200.49471   200.48533   181.99005    -0.00356     0.05388     0.01596
  augment    23.86593    23.86668    24.68121    -0.00284    -0.00180    -0.00055
  Kinetic  4251.37341  4251.47206  4274.02658    -0.03224    -0.01804    -0.01405
  Fock     -382.70440  -382.82155  -382.22445    -0.06533     0.02865     0.00781
  -------------------------------------------------------------------------------------
  Total      -2.42182    -2.47882     3.27158    -0.08561     0.08209     0.01716
  in kB      -5.24227    -5.36565     7.08166    -0.18531     0.17768     0.03715
  external pressure =       -1.18 kB  Pullay stress =        0.00 kB


 VOLUME and BASIS-vectors are now :
 -----------------------------------------------------------------------------
  energy-cutoff  :      500.00
  volume of cell :      740.17
      direct lattice vectors                 reciprocal lattice vectors
     9.287201881  0.000000000  0.000000000     0.107675058  0.062166243 -0.000000000
    -4.643602965  8.042953793  0.000000000     0.000000000  0.124332431  0.000000000
     0.000000000  0.000000000  9.909069061     0.000000000 -0.000000000  0.100917654

  length of vectors
     9.287201881  9.287203789  9.909069061     0.124332457  0.124332431  0.100917654


 FORCES acting on ions:
    Electron-Ion                     Ewald-Force                    Non-Local-Force
 -----------------------------------------------------------------------------------------------
   0.470E-01 -.231E-01 0.194E+01   -.387E-01 0.175E-01 -.162E+01   -.871E-02 0.293E-02 -.372E+00
   -.289E+01 -.616E+01 0.414E+01   0.146E+01 0.646E+01 -.297E+01   0.153E+01 -.328E+00 -.125E+01
   -.768E+00 -.569E+00 -.247E+00   0.508E+00 0.628E+00 0.511E+00   0.272E+00 -.687E-01 -.285E+00
   -.670E+01 0.502E+00 0.414E+01   0.626E+01 -.190E+01 -.297E+01   0.475E+00 0.149E+01 -.125E+01
   -.838E+00 -.327E+00 -.222E+00   0.766E+00 0.833E-01 0.492E+00   0.793E-01 0.259E+00 -.292E+00
   -.381E+01 0.557E+01 0.411E+01   0.481E+01 -.448E+01 -.295E+01   -.105E+01 -.117E+01 -.125E+01
   -.110E+00 0.912E+00 -.222E+00   0.288E+00 -.726E+00 0.492E+00   -.190E+00 -.204E+00 -.293E+00
   0.292E+01 -.614E+01 0.414E+01   -.148E+01 0.644E+01 -.297E+01   -.154E+01 -.324E+00 -.126E+01
   0.671E+00 -.564E+00 -.218E+00   -.434E+00 0.625E+00 0.484E+00   -.259E+00 -.681E-01 -.290E+00
   -.201E-01 -.509E-03 0.156E+01   0.192E-01 0.293E-02 -.103E+01   0.103E-02 -.935E-02 -.561E+00
   -.599E-01 0.170E-01 0.690E+00   0.485E-01 -.170E-01 -.126E+00   0.119E-01 -.509E-02 -.607E+00
   0.391E+01 0.559E+01 0.415E+01   -.488E+01 -.450E+01 -.297E+01   0.104E+01 -.117E+01 -.126E+01
   0.886E-01 0.910E+00 -.239E+00   -.270E+00 -.723E+00 0.502E+00   0.190E+00 -.201E+00 -.288E+00
   0.438E-01 -.856E-02 0.104E+01   -.362E-01 0.638E-02 -.495E+00   -.132E-01 -.719E-03 -.580E+00
   -.820E-01 0.192E-01 0.426E+00   0.669E-01 -.123E-01 0.530E-01   0.961E-02 -.660E-02 -.512E+00
   0.679E+01 0.523E+00 0.417E+01   -.633E+01 -.192E+01 -.299E+01   -.491E+00 0.149E+01 -.125E+01
   0.789E+00 -.334E+00 -.231E+00   -.727E+00 0.909E-01 0.500E+00   -.679E-01 0.261E+00 -.290E+00
   -.594E+01 0.346E+01 0.651E+00   0.577E+01 -.335E+01 -.167E+01   0.178E+00 -.112E+00 0.109E+01
   0.119E+01 -.770E+00 -.531E+01   0.145E+00 -.117E-01 0.600E+01   -.143E+01 0.827E+00 -.746E+00
   -.876E-02 -.681E+01 0.710E+00   0.473E-02 0.663E+01 -.172E+01   0.503E-02 0.196E+00 0.108E+01
   -.469E-01 0.137E+01 -.534E+01   0.400E-01 0.169E+00 0.603E+01   0.254E-02 -.164E+01 -.742E+00
   -.855E-01 -.315E-01 0.835E+00   0.277E+00 0.146E+00 -.352E+00   -.202E+00 -.130E+00 -.514E+00
   0.344E-02 -.450E-01 0.939E-02   0.188E+00 0.144E+00 0.514E+00   -.202E+00 -.109E+00 -.562E+00
   -.141E-01 0.852E-01 0.818E+00   0.100E-01 -.308E+00 -.333E+00   0.497E-02 0.229E+00 -.516E+00
   -.103E-01 -.709E-01 0.189E-01   0.537E-02 -.159E+00 0.500E+00   0.112E-02 0.235E+00 -.559E+00
   -.137E+01 -.804E+00 0.230E+01   0.140E+01 0.816E+00 -.183E+01   -.273E-01 -.189E-01 -.513E+00
   -.111E+01 -.696E+00 -.119E+01   0.117E+01 0.715E+00 0.169E+01   -.586E-01 -.239E-01 -.531E+00
   0.929E-01 -.669E-01 0.859E+00   -.278E+00 0.179E+00 -.368E+00   0.200E+00 -.121E+00 -.525E+00
   0.175E-01 -.500E-01 -.911E-02   -.202E+00 0.148E+00 0.526E+00   0.190E+00 -.105E+00 -.554E+00
   0.590E+01 0.347E+01 0.694E+00   -.573E+01 -.337E+01 -.171E+01   -.173E+00 -.113E+00 0.108E+01
   -.121E+01 -.675E+00 -.536E+01   -.129E+00 -.942E-01 0.605E+01   0.142E+01 0.820E+00 -.739E+00
   0.135E+01 -.792E+00 0.236E+01   -.138E+01 0.810E+00 -.188E+01   0.300E-01 -.255E-01 -.522E+00
   0.108E+01 -.660E+00 -.127E+01   -.115E+01 0.689E+00 0.176E+01   0.645E-01 -.326E-01 -.523E+00
   0.564E-01 0.158E+01 0.231E+01   -.479E-01 -.161E+01 -.183E+01   -.725E-02 0.243E-01 -.512E+00
   0.586E-01 0.126E+01 -.123E+01   -.503E-01 -.134E+01 0.173E+01   -.840E-02 0.735E-01 -.530E+00
   0.795E-01 -.485E-01 0.120E+01   -.669E-01 0.418E-01 -.929E+00   -.962E-02 0.457E-03 -.288E+00
   0.251E-01 -.267E-02 0.110E+02   -.271E-01 0.731E-02 -.110E+02   0.174E-02 -.567E-02 0.348E-02
   -.335E-01 -.176E-01 -.404E+02   0.356E-01 0.300E-01 0.452E+02   -.323E-02 -.140E-01 -.434E+01
   0.491E+00 -.342E+01 0.150E+01   -.689E+00 0.362E+01 -.148E+01   0.179E+00 -.188E+00 -.278E-01
   0.227E+01 -.535E+01 -.370E+01   -.256E+01 0.552E+01 0.389E+01   0.254E+00 -.159E+00 -.179E+00
   -.269E+01 0.211E+01 0.146E+01   0.276E+01 -.237E+01 -.145E+01   -.582E-01 0.238E+00 -.176E-01
   -.353E+01 0.465E+01 -.369E+01   0.354E+01 -.500E+01 0.391E+01   -.903E-02 0.308E+00 -.208E+00
   -.318E+01 0.128E+01 0.145E+01   0.345E+01 -.120E+01 -.144E+01   -.238E+00 -.780E-01 -.210E-01
   -.575E+01 0.721E+00 -.369E+01   0.603E+01 -.546E+00 0.391E+01   -.255E+00 -.158E+00 -.214E+00
   -.505E+00 -.343E+01 0.147E+01   0.708E+00 0.363E+01 -.146E+01   -.184E+00 -.190E+00 -.169E-01
   -.231E+01 -.531E+01 -.369E+01   0.264E+01 0.546E+01 0.390E+01   -.294E+00 -.146E+00 -.188E+00
   -.630E-03 0.657E-02 -.391E+00   -.211E-01 -.414E-03 0.450E+00   0.222E-01 -.121E-01 -.612E-01
   -.227E-01 0.745E-02 0.101E+00   0.291E-01 -.171E-02 -.137E+00   -.657E-02 -.107E-01 0.255E-01
   0.321E+01 0.128E+01 0.147E+01   -.349E+01 -.120E+01 -.145E+01   0.253E+00 -.784E-01 -.278E-01
   0.582E+01 0.696E+00 -.371E+01   -.611E+01 -.507E+00 0.391E+01   0.259E+00 -.170E+00 -.184E+00
   0.137E-01 -.127E-01 0.946E+00   -.203E-01 0.120E-01 -.917E+00   0.526E-02 -.246E-02 -.329E-01
   -.136E-01 0.463E-01 -.133E+01   0.453E-01 -.610E-01 0.129E+01   -.334E-01 0.126E-01 0.215E-01
   0.270E+01 0.212E+01 0.145E+01   -.278E+01 -.239E+01 -.143E+01   0.718E-01 0.244E+00 -.226E-01
   0.347E+01 0.467E+01 -.370E+01   -.344E+01 -.502E+01 0.390E+01   -.264E-01 0.312E+00 -.183E+00
   -.336E+02 0.194E+02 0.130E+02   0.374E+02 -.216E+02 -.144E+02   -.337E+01 0.194E+01 0.127E+01
   -.880E+00 0.517E+00 -.822E+00   0.103E+01 -.616E+00 0.107E+01   -.132E+00 0.879E-01 -.240E+00
   -.442E-01 -.388E+02 0.129E+02   0.494E-01 0.431E+02 -.143E+02   -.517E-02 -.390E+01 0.126E+01
   0.255E-01 -.981E+00 -.805E+00   -.222E-01 0.114E+01 0.104E+01   -.802E-02 -.141E+00 -.225E+00
   -.205E+01 -.119E+01 0.139E+01   0.226E+01 0.133E+01 -.141E+01   -.188E+00 -.137E+00 0.155E-01
   -.210E+00 -.910E-01 -.136E+01   0.224E+00 0.930E-01 0.140E+01   -.138E-01 -.596E-02 -.432E-01
   -.380E-02 0.235E+01 0.139E+01   -.529E-02 -.259E+01 -.142E+01   0.112E-01 0.213E+00 0.265E-01
   0.575E-02 0.273E+00 -.133E+01   -.146E-01 -.304E+00 0.136E+01   0.698E-02 0.251E-01 -.362E-01
   -.511E+01 -.292E+01 0.236E+01   0.536E+01 0.305E+01 -.253E+01   -.229E+00 -.123E+00 0.153E+00
   -.510E+00 -.301E+00 -.126E+01   0.584E+00 0.328E+00 0.130E+01   -.668E-01 -.251E-01 -.378E-01
   0.204E+01 -.119E+01 0.138E+01   -.227E+01 0.133E+01 -.142E+01   0.211E+00 -.127E+00 0.333E-01
   0.278E+00 -.124E+00 -.134E+01   -.326E+00 0.125E+00 0.137E+01   0.444E-01 -.375E-02 -.352E-01
   0.336E+02 0.194E+02 0.129E+02   -.373E+02 -.216E+02 -.144E+02   0.338E+01 0.195E+01 0.127E+01
   0.868E+00 0.520E+00 -.811E+00   -.101E+01 -.621E+00 0.104E+01   0.131E+00 0.928E-01 -.222E+00
   0.509E+01 -.293E+01 0.235E+01   -.532E+01 0.307E+01 -.252E+01   0.207E+00 -.129E+00 0.153E+00
   0.542E+00 -.309E+00 -.126E+01   -.611E+00 0.337E+00 0.131E+01   0.543E-01 -.233E-01 -.471E-01
   0.116E-01 0.587E+01 0.239E+01   -.345E-02 -.615E+01 -.257E+01   -.855E-02 0.250E+00 0.161E+00
   0.292E-01 0.630E+00 -.129E+01   -.367E-01 -.736E+00 0.132E+01   0.716E-02 0.941E-01 -.392E-01
 -----------------------------------------------------------------------------------------------
   0.127E-02 -.147E+00 0.199E+02   -.341E-13 -.553E-13 -.504E-13   -.608E-01 -.147E+00 -.198E+02


 POSITION                                       TOTAL-FORCE (eV/Angst)
 -----------------------------------------------------------------------------------
      0.00874      1.81266      9.88121         0.001049      0.001343     -0.016914
     -1.54938      4.49361      4.93664         0.004941     -0.010097      0.001877
     -1.53774      4.49219      9.88397        -0.003536     -0.001372      0.000179
     -3.09503      7.16859      4.93801        -0.000449      0.002836     -0.002645
     -3.08849      7.17506      9.88374         0.003021      0.003886     -0.000326
      3.10688      1.82432      4.93784         0.001474     -0.001899     -0.002013
      3.10315      1.81347      9.88368         0.000543     -0.000638     -0.001294
      1.56767      4.49324      4.93666        -0.002078     -0.002546      0.000143
      1.55791      4.49194      9.88345        -0.004945      0.001607     -0.001473
      0.00837      7.17658      4.93964         0.000901     -0.002156      0.000282
      0.00875      7.17519      9.88197         0.000587     -0.000596      0.000025
      6.19669      1.82437      4.93677         0.008151     -0.002860     -0.001434
      6.20213      1.81294      9.88387        -0.002007      0.003447     -0.004137
      4.65295      4.49479      4.93261        -0.003757      0.001256      0.001750
      4.65356      4.49270      9.88670        -0.005175      0.005102      0.002855
      3.11142      7.16763      4.93627         0.003344      0.003568      0.004446
      3.10612      7.17472      9.88320        -0.001027      0.005560     -0.000071
      1.54665      0.92528      2.44075        -0.007523      0.004863      0.004280
      1.56947      0.91255      7.39993        -0.003560     -0.000772     -0.007756
      0.00928      3.58998      2.44059         0.001102     -0.004619      0.002974
      0.01064      3.61716      7.39912        -0.003729     -0.002028     -0.008650
     -1.53652      6.28424      2.44844         0.001764     -0.003813      0.004609
     -1.53705      6.28316      7.41076         0.001065     -0.000672     -0.001578
      4.65184      0.91621      2.44780         0.001244     -0.002141      0.006514
      4.65345      0.91986      7.41062        -0.003285     -0.004404     -0.001899
      3.10512      3.60155      2.45029         0.004035     -0.002050      0.001572
      3.10870      3.60286      7.41436         0.002006     -0.000341      0.002744
      1.55172      6.28406      2.44715         0.003962      0.001402      0.004338
      1.55673      6.28301      7.41005        -0.003969      0.002690      0.000376
      7.75731      0.92532      2.44017         0.007326      0.003078      0.005374
      7.73566      0.91217      7.39882        -0.002296      0.004891     -0.007789
      6.19954      3.60146      2.45008        -0.000255     -0.003155      0.002580
      6.20114      3.60238      7.41461        -0.005103      0.001924      0.000567
      4.65187      6.28052      2.44978         0.002428      0.000206      0.003499
      4.65350      6.27920      7.41413         0.000986     -0.000242      0.003457
      0.00792      1.81462      4.93880         0.003949     -0.002615     -0.001741
      0.00848      1.81372      1.85383        -0.000097      0.001073     -0.011923
      0.00910      1.81444      6.71256        -0.000989      0.000855      0.005436
     -1.53251      4.49101      1.87329         0.002948     -0.006286      0.000383
     -1.53774      4.49374      6.81956        -0.004542     -0.002341      0.002934
     -3.08812      7.18286      1.87275         0.001436      0.007001      0.003829
     -3.08843      7.17662      6.82051        -0.000901     -0.001711     -0.001756
      3.09730      1.81056      1.87283        -0.003473     -0.003818      0.003545
      3.10336      1.81568      6.82066        -0.000641      0.001514     -0.002733
      1.55051      4.49088      1.87247        -0.002499     -0.006471      0.004108
      1.55921      4.49347      6.81945        -0.000759     -0.002936      0.003742
      0.00762      7.17621      1.86181         0.004610     -0.003791     -0.000186
      0.00969      7.17672      6.82827         0.000073     -0.002893      0.001970
      6.20656      1.81030      1.87304         0.006148     -0.002295      0.000524
      6.20290      1.81565      6.81952        -0.003132      0.003561      0.004129
      4.65245      4.49428      1.86770         0.000635     -0.000044      0.002541
      4.65485      4.49446      6.82314        -0.004828      0.002547      0.000443
      3.10420      7.18273      1.87244         0.003865      0.005529      0.004078
      3.10772      7.17600      6.81911         0.000884      0.001317      0.004886
      1.46318      0.97447      4.37378         0.006043     -0.003677     -0.003291
      1.54962      0.92307      9.28462         0.000256      0.002301     -0.015987
      0.00887      3.49520      4.37340         0.001377      0.000192     -0.000988
      0.01012      3.59209      9.28395        -0.004170      0.001841     -0.013055
     -1.53892      6.28422      4.34011        -0.000867     -0.006692      0.005172
     -1.54066      6.28027      9.30210        -0.001067     -0.001139     -0.003375
      4.65155      0.91996      4.33977         0.003931      0.003166      0.006205
      4.65277      0.92187      9.30209        -0.000462      0.000905     -0.003593
      3.10363      3.60092      4.34106        -0.004524     -0.002383      0.005581
      3.10575      3.60009      9.30387        -0.001652      0.002671     -0.000496
      1.55488      6.28343      4.33891         0.006393     -0.003236      0.010619
      1.55861      6.28006      9.30169         0.001583      0.001271     -0.002415
      7.84029      0.97405      4.37316         0.000462     -0.000661     -0.000624
      7.75555      0.92264      9.28386        -0.000190      0.004718     -0.012833
      6.20198      3.60095      4.34070         0.001435     -0.001342      0.006976
      6.20214      3.59972      9.30439        -0.007783      0.005150     -0.004113
      4.65231      6.28360      4.34077        -0.001393      0.004707      0.005598
      4.65271      6.28024      9.30381         0.000705      0.002755     -0.000051
 -----------------------------------------------------------------------------------
    total drift:                               -0.051374     -0.266887     -0.047447


--------------------------------------------------------------------------------------------------------



  FREE ENERGIE OF THE ION-ELECTRON SYSTEM (eV)
  ---------------------------------------------------
  free  energy   TOTEN  =      -658.62890596 eV

  energy  without entropy=     -658.62889814  energy(sigma->0) =     -658.62890205

 d Force = 0.2056862E-03[ 0.104E-03, 0.308E-03]  d Energy = 0.2066547E-03-0.969E-06
 d Force =-0.1296568E+00[-0.130E+00,-0.129E+00]  d Ewald  =-0.1296569E+00 0.122E-06


--------------------------------------------------------------------------------------------------------


    POTLOK:  cpu time    0.0990: real time    0.1004


--------------------------------------------------------------------------------------------------------




--------------------------------------------------------------------------------------------------------


  
 reached required accuracy - stopping structural energy minimisation
     LOOP+:  cpu time  566.1248: real time  566.4382
    4ORBIT:  cpu time    0.0000: real time    0.0000

 total amount of memory used by VASP on root node   145101. kBytes
========================================================================

   base      :      30000. kBytes
   nonlr-proj:      81858. kBytes
   fftplans  :       2473. kBytes
   grid      :       4332. kBytes
   one-center:        110. kBytes
   HF        :          9. kBytes
   wavefun   :      26319. kBytes

  
  
 General timing and accounting informations for this job:
 ========================================================
  
                  Total CPU time used (sec):     4820.062
                            User time (sec):     4757.256
                          System time (sec):       62.805
                         Elapsed time (sec):     4828.373
  
                   Maximum memory used (kb):      430656.
                   Average memory used (kb):           0.
  
                          Minor page faults:     10281665
                          Major page faults:         1078
                 Voluntary context switches:         1783
