       N       E                     dE             d eps       ncg     rms          rms(c)
DAV:   1    -0.646781758531E+03   -0.64678E+03   -0.18389E-04 33008   0.960E-03    0.810E-03
DAV:   2    -0.646781759153E+03   -0.62164E-06   -0.35155E-06 34216   0.244E-03    0.511E-03
DAV:   3    -0.646781759068E+03    0.84471E-07   -0.24175E-07 34736   0.108E-03    0.341E-03
DAV:   4    -0.646781758941E+03    0.12691E-06   -0.76761E-08 39032   0.621E-04    0.226E-03
DAV:   5    -0.646781758818E+03    0.12327E-06   -0.29103E-08 33080   0.377E-04    0.152E-03
DAV:   6    -0.646781758711E+03    0.10661E-06   -0.12002E-08 25360   0.240E-04    0.103E-03
DAV:   7    -0.646781758626E+03    0.85377E-07   -0.54999E-09 21824   0.164E-04    0.710E-04
DAV:   8    -0.646781758557E+03    0.69112E-07   -0.25166E-09 18944   0.113E-04
   1 F= -.64678176E+03 E0= -.64678079E+03  d E =-.192828E-02
