 vasp.5.4.1 24Jun15 (build Oct 18 2022 00:58:31) complex                         
 executed on        GCC_CrayMPICH date 2023.08.25  13:54:30
 running on 1024 total cores
 distrk:  each k-point on  256 cores,    4 groups
 distr:  one band on NCORES_PER_BAND=  32 cores,    8 groups


--------------------------------------------------------------------------------------------------------


 INCAR:
 POTCAR:    PAW_PBE Si 05Jan2001                  
 POTCAR:    PAW_PBE Al 04Jan2001                  
 POTCAR:    PAW_PBE N 08Apr2002                   

 ----------------------------------------------------------------------------- 
|                                                                             |
|           W    W    AA    RRRRR   N    N  II  N    N   GGGG   !!!           |
|           W    W   A  A   R    R  NN   N  II  NN   N  G    G  !!!           |
|           W    W  A    A  R    R  N N  N  II  N N  N  G       !!!           |
|           W WW W  AAAAAA  RRRRR   N  N N  II  N  N N  G  GGG   !            |
|           WW  WW  A    A  R   R   N   NN  II  N   NN  G    G                |
|           W    W  A    A  R    R  N    N  II  N    N   GGGG   !!!           |
|                                                                             |
|      You have enabled k-point parallelism (KPAR>1).                         |
|      This developmental code was originally  written by Paul Kent at ORNL,  |
|      and carefully double checked in Vienna.                                |
|      GW as well as linear response parallelism added by Martijn Marsman     |
|      and Georg Kresse.                                                      |
|      Carefully verify results versus KPAR=1.                                |
|      Report problems to Paul Kent and Vienna.                               |
|                                                                             |
 ----------------------------------------------------------------------------- 

 POTCAR:    PAW_PBE Si 05Jan2001                  
   VRHFIN =Si: s2p2                                                             
   LEXCH  = PE                                                                  
   EATOM  =   103.0669 eV,    7.5752 Ry                                         
                                                                                
   TITEL  = PAW_PBE Si 05Jan2001                                                
   LULTRA =        F    use ultrasoft PP ?                                      
   IUNSCR =        1    unscreen: 0-lin 1-nonlin 2-no                           
   RPACOR =    1.500    partial core radius                                     
   POMASS =   28.085; ZVAL   =    4.000    mass and valenz                      
   RCORE  =    1.900    outmost cutoff radius                                   
   RWIGS  =    2.480; RWIGS  =    1.312    wigner-seitz radius (au A)           
   ENMAX  =  245.345; ENMIN  =  184.009 eV                                      
   ICORE  =        2    local potential                                         
   LCOR   =        T    correct aug charges                                     
   LPAW   =        T    paw PP                                                  
   EAUG   =  322.069                                                            
   DEXC   =    0.000                                                            
   RMAX   =    1.950    core radius for proj-oper                               
   RAUG   =    1.300    factor for augmentation sphere                          
   RDEP   =    1.993    radius for radial grids                                 
   RDEPT  =    1.837    core radius for aug-charge                              
                                                                                
   Atomic configuration                                                         
    6 entries                                                                   
     n  l   j            E        occ.                                          
     1  0  0.50     -1785.8828   2.0000                                         
     2  0  0.50      -139.4969   2.0000                                         
     2  1  1.50       -95.5546   6.0000                                         
     3  0  0.50       -10.8127   2.0000                                         
     3  1  0.50        -4.0811   2.0000                                         
     3  2  1.50        -4.0817   0.0000                                         
   Description                                                                  
     l       E           TYP  RCUT    TYP  RCUT                                 
     0    -10.8127223     23  1.900                                             
     0     -7.6451159     23  1.900                                             
     1     -4.0811372     23  1.900                                             
     1      2.4879257     23  1.900                                             
     2     -4.0817478      7  1.900                                             
  local pseudopotential read in
  partial core-charges read in
  partial kinetic energy density read in
  atomic valenz-charges read in
  non local Contribution for L=           0  read in
    real space projection operators read in
  non local Contribution for L=           0  read in
    real space projection operators read in
  non local Contribution for L=           1  read in
    real space projection operators read in
  non local Contribution for L=           1  read in
    real space projection operators read in
    PAW grid and wavefunctions read in

   number of l-projection  operators is LMAX  =           4
   number of lm-projection operators is LMMAX =           8

 POTCAR:    PAW_PBE Al 04Jan2001                  
   VRHFIN =Al: s2p1                                                             
   LEXCH  = PE                                                                  
   EATOM  =    53.5387 eV,    3.9350 Ry                                         
                                                                                
   TITEL  = PAW_PBE Al 04Jan2001                                                
   LULTRA =        F    use ultrasoft PP ?                                      
   IUNSCR =        1    unscreen: 0-lin 1-nonlin 2-no                           
   RPACOR =    1.500    partial core radius                                     
   POMASS =   26.981; ZVAL   =    3.000    mass and valenz                      
   RCORE  =    1.900    outmost cutoff radius                                   
   RWIGS  =    2.650; RWIGS  =    1.402    wigner-seitz radius (au A)           
   ENMAX  =  240.300; ENMIN  =  180.225 eV                                      
   ICORE  =        2    local potential                                         
   LCOR   =        T    correct aug charges                                     
   LPAW   =        T    paw PP                                                  
   EAUG   =  291.052                                                            
   DEXC   =    0.000                                                            
   RMAX   =    1.939    core radius for proj-oper                               
   RAUG   =    1.300    factor for augmentation sphere                          
   RDEP   =    1.966    radius for radial grids                                 
   RDEPT  =    1.856    core radius for aug-charge                              
                                                                                
   Atomic configuration                                                         
    6 entries                                                                   
     n  l   j            E        occ.                                          
     1  0  0.50     -1511.1048   2.0000                                         
     2  0  0.50      -108.1629   2.0000                                         
     2  1  1.50       -69.6402   6.0000                                         
     3  0  0.50        -7.7528   2.0000                                         
     3  1  1.50        -2.7121   1.0000                                         
     3  2  2.50        -2.7212   0.0000                                         
   Description                                                                  
     l       E           TYP  RCUT    TYP  RCUT                                 
     0     -7.7528455     23  1.900                                             
     0     -3.3096929     23  1.900                                             
     1     -2.7120682     23  1.900                                             
     1     13.6058260     23  1.900                                             
     2     -2.7211652      7  1.900                                             
  local pseudopotential read in
  partial core-charges read in
  partial kinetic energy density read in
  atomic valenz-charges read in
  non local Contribution for L=           0  read in
    real space projection operators read in
  non local Contribution for L=           0  read in
    real space projection operators read in
  non local Contribution for L=           1  read in
    real space projection operators read in
  non local Contribution for L=           1  read in
    real space projection operators read in
    PAW grid and wavefunctions read in

   number of l-projection  operators is LMAX  =           4
   number of lm-projection operators is LMMAX =           8

 POTCAR:    PAW_PBE N 08Apr2002                   
   VRHFIN =N: s2p3                                                              
   LEXCH  = PE                                                                  
   EATOM  =   264.5486 eV,   19.4438 Ry                                         
                                                                                
   TITEL  = PAW_PBE N 08Apr2002                                                 
   LULTRA =        F    use ultrasoft PP ?                                      
   IUNSCR =        1    unscreen: 0-lin 1-nonlin 2-no                           
   RPACOR =    1.200    partial core radius                                     
   POMASS =   14.001; ZVAL   =    5.000    mass and valenz                      
   RCORE  =    1.500    outmost cutoff radius                                   
   RWIGS  =    1.400; RWIGS  =    0.741    wigner-seitz radius (au A)           
   ENMAX  =  400.000; ENMIN  =  300.000 eV                                      
   ICORE  =        2    local potential                                         
   LCOR   =        T    correct aug charges                                     
   LPAW   =        T    paw PP                                                  
   EAUG   =  627.112                                                            
   DEXC   =    0.000                                                            
   RMAX   =    1.529    core radius for proj-oper                               
   RAUG   =    1.300    factor for augmentation sphere                          
   RDEP   =    1.514    radius for radial grids                                 
   RDEPT  =    1.338    core radius for aug-charge                              
                                                                                
   Atomic configuration                                                         
    4 entries                                                                   
     n  l   j            E        occ.                                          
     1  0  0.50      -384.7179   2.0000                                         
     2  0  0.50       -18.5828   2.0000                                         
     2  1  0.50        -7.0898   3.0000                                         
     3  2  1.50        -6.8029   0.0000                                         
   Description                                                                  
     l       E           TYP  RCUT    TYP  RCUT                                 
     0    -18.5828119     23  1.200                                             
     0    -13.5018863     23  1.200                                             
     1     -7.0897853     23  1.500                                             
     1      9.5240782     23  1.500                                             
     2     -6.8029130      7  1.500                                             
  local pseudopotential read in
  partial core-charges read in
  partial kinetic energy density read in
  atomic valenz-charges read in
  non local Contribution for L=           0  read in
    real space projection operators read in
  non local Contribution for L=           0  read in
    real space projection operators read in
  non local Contribution for L=           1  read in
    real space projection operators read in
  non local Contribution for L=           1  read in
    real space projection operators read in
    PAW grid and wavefunctions read in

   number of l-projection  operators is LMAX  =           4
   number of lm-projection operators is LMMAX =           8

 Optimization of the real space projectors (new method)

 maximal supplied QI-value         = 19.84
 optimisation between [QCUT,QGAM] = [ 11.31, 22.82] = [ 35.82,145.81] Ry 
 Optimized for a Real-space Cutoff    1.16 Angstroem

   l    n(q)    QCUT    max X(q) W(low)/X(q) W(high)/X(q)  e(spline) 
   0      8    11.310   159.560    0.27E-03    0.30E-03    0.39E-07
   0      8    11.310   115.863    0.27E-03    0.30E-03    0.38E-07
   1      7    11.310    88.339    0.28E-03    0.28E-03    0.77E-07
   1      7    11.310    48.592    0.27E-03    0.27E-03    0.74E-07
 Optimization of the real space projectors (new method)

 maximal supplied QI-value         = 19.84
 optimisation between [QCUT,QGAM] = [ 11.31, 22.82] = [ 35.82,145.81] Ry 
 Optimized for a Real-space Cutoff    1.07 Angstroem

   l    n(q)    QCUT    max X(q) W(low)/X(q) W(high)/X(q)  e(spline) 
   0      7    11.310   176.870    0.43E-03    0.33E-03    0.78E-07
   0      7    11.310   105.762    0.41E-03    0.33E-03    0.76E-07
   1      7    11.310    55.370    0.40E-03    0.29E-03    0.65E-07
   1      7    11.310    20.208    0.38E-03    0.25E-03    0.60E-07
 Optimization of the real space projectors (new method)

 maximal supplied QI-value         = 25.13
 optimisation between [QCUT,QGAM] = [ 11.31, 22.87] = [ 35.82,146.48] Ry 
 Optimized for a Real-space Cutoff    1.27 Angstroem

   l    n(q)    QCUT    max X(q) W(low)/X(q) W(high)/X(q)  e(spline) 
   0      9    11.310    79.467    0.75E-04    0.16E-03    0.36E-06
   0      9    11.310    66.151    0.74E-04    0.16E-03    0.36E-06
   1      8    11.310    17.416    0.35E-03    0.12E-03    0.95E-06
   1      8    11.310    12.382    0.37E-03    0.13E-03    0.98E-06
  PAW_PBE Si 05Jan2001                  :
 energy of atom  1       EATOM= -103.0669
 kinetic energy error for atom=    0.0006 (will be added to EATOM!!)
  PAW_PBE Al 04Jan2001                  :
 energy of atom  2       EATOM=  -53.5387
 kinetic energy error for atom=    0.0003 (will be added to EATOM!!)
  PAW_PBE N 08Apr2002                   :
 energy of atom  3       EATOM= -264.5486
 kinetic energy error for atom=    0.0138 (will be added to EATOM!!)


 POSCAR: Al2 N2                                  
  positions in direct lattice
  velocities in cartesian coordinates
 exchange correlation table for  LEXCH =        8
   RHO(1)=    0.500       N(1)  =     2000
   RHO(2)=  100.500       N(2)  =     4000



--------------------------------------------------------------------------------------------------------


 ion  position               nearest neighbor table
   1  0.444  0.556  0.501-  46 1.77  57 1.77  65 1.77  63 1.77  22 3.05  30 3.05  28 3.05  21 3.07
                            29 3.07  27 3.07   2 3.10   4 3.10  15 3.10  17 3.10   8 3.10  11 3.10
   2  0.112  0.222  0.500-  55 1.88  38 1.88  67 1.89  57 1.93  22 3.04  20 3.05  32 3.05  19 3.06
                            31 3.06  21 3.07   8 3.08   6 3.09   1 3.10  17 3.10  13 3.10   4 3.11
   3  0.111  0.222  1.000-  56 1.88  68 1.88  58 1.89  37 1.89  20 3.05  21 3.05  32 3.05  22 3.06
                            19 3.06  31 3.06   9 3.09   7 3.09  10 3.10  18 3.10  14 3.10   5 3.10
   4  0.112  0.556  0.500-  59 1.88  40 1.88  69 1.89  57 1.93  22 3.04  24 3.05  34 3.05  23 3.06
                            33 3.06  21 3.07  11 3.08   6 3.09   1 3.10  15 3.10  13 3.10   2 3.11
   5  0.111  0.556  1.000-  60 1.88  70 1.88  58 1.89  39 1.89  24 3.05  21 3.05  34 3.05  22 3.06
                            23 3.06  33 3.06  12 3.09   7 3.09  10 3.10  16 3.10  14 3.10   3 3.10
   6  0.111  0.889  0.500-  71 1.88  55 1.88  59 1.88  42 1.89  35 3.06  19 3.06  23 3.06  36 3.06
                            20 3.06  24 3.06   8 3.09  17 3.09  11 3.09  15 3.09   2 3.09   4 3.09
   7  0.111  0.889  1.000-  72 1.88  56 1.88  60 1.88  41 1.89  36 3.05  20 3.05  24 3.05  35 3.05
                            19 3.05  23 3.05   9 3.09  18 3.09  12 3.09  16 3.09   3 3.09   5 3.09
   8  0.444  0.222  0.500-  55 1.88  44 1.88  61 1.89  63 1.93  28 3.04  20 3.05  26 3.05  19 3.06
                            25 3.06  27 3.07   2 3.08   6 3.09   1 3.10  11 3.10  13 3.10  15 3.11
   9  0.444  0.222  1.000-  56 1.88  62 1.88  64 1.89  43 1.89  20 3.05  27 3.05  26 3.05  28 3.06
                            19 3.06  25 3.06   3 3.09   7 3.09  10 3.10  12 3.10  14 3.10  16 3.10
  10  0.444  0.556  0.999-  58 1.88  66 1.88  64 1.88  45 1.88  21 3.05  29 3.05  27 3.05  22 3.06
                            30 3.06  28 3.06   3 3.10   5 3.10  16 3.10  18 3.10   9 3.10  12 3.10
  11  0.444  0.888  0.500-  59 1.88  48 1.88  61 1.89  65 1.93  30 3.04  24 3.05  26 3.05  23 3.06
                            25 3.06  29 3.07   4 3.08   6 3.09   1 3.10   8 3.10  13 3.10  17 3.11
  12  0.444  0.889  1.000-  60 1.88  62 1.88  66 1.89  47 1.89  24 3.05  29 3.05  26 3.05  30 3.06
                            23 3.06  25 3.06   5 3.09   7 3.09  10 3.10   9 3.10  14 3.10  18 3.10
  13  0.778  0.222  0.501-  61 1.89  69 1.89  67 1.89  50 1.89  26 3.05  34 3.05  32 3.05  25 3.06
                            33 3.06  31 3.06   4 3.10   2 3.10  11 3.10   8 3.10  17 3.10  15 3.10
  14  0.778  0.222  0.999-  62 1.88  70 1.88  68 1.88  49 1.89  26 3.05  34 3.05  32 3.05  25 3.05
                            33 3.05  31 3.05   5 3.10   3 3.10  12 3.10   9 3.10  18 3.10  16 3.10
  15  0.778  0.556  0.500-  71 1.88  52 1.88  69 1.89  63 1.93  28 3.04  36 3.05  34 3.05  35 3.06
                            33 3.06  27 3.07  17 3.08   6 3.09   1 3.10   4 3.10  13 3.10   8 3.11
  16  0.778  0.556  1.000-  72 1.88  70 1.88  64 1.89  51 1.89  36 3.05  27 3.05  34 3.05  28 3.06
                            35 3.06  33 3.06  18 3.09   7 3.09  10 3.10   5 3.10  14 3.10   9 3.10
  17  0.778  0.888  0.500-  71 1.88  54 1.88  67 1.89  65 1.93  30 3.04  36 3.05  32 3.05  35 3.06
                            31 3.06  29 3.07  15 3.08   6 3.09   1 3.10   2 3.10  13 3.10  11 3.11
  18  0.778  0.889  1.000-  72 1.88  68 1.88  66 1.89  53 1.89  36 3.05  29 3.05  32 3.05  30 3.06
                            35 3.06  31 3.06  16 3.09   7 3.09  10 3.10   3 3.10  14 3.10  12 3.10
  19  0.222  0.111  0.250-  41 1.88  43 1.88  37 1.88  55 1.89   7 3.05   9 3.06   3 3.06   6 3.06
                             8 3.06   2 3.06  35 3.10  23 3.10  27 3.10  21 3.10  31 3.10  25 3.10
  20  0.222  0.111  0.750-  42 1.88  44 1.88  38 1.88  56 1.89   9 3.05   3 3.05   7 3.05   8 3.05
                             2 3.05   6 3.06  36 3.09  24 3.09  32 3.10  26 3.10  28 3.10  22 3.10
  21  0.223  0.445  0.249-  45 1.87  37 1.88  39 1.88  57 1.93  10 3.05   3 3.05   5 3.05   1 3.07
                             2 3.07   4 3.07  27 3.08  29 3.08  19 3.10  23 3.10  33 3.10  31 3.10
  22  0.221  0.444  0.749-  38 1.87  40 1.87  58 1.88  46 1.93   2 3.04   4 3.04   1 3.05   3 3.06
                             5 3.06  10 3.06  34 3.08  32 3.08  20 3.10  24 3.10  28 3.12  30 3.12
  23  0.222  0.778  0.250-  41 1.88  47 1.88  39 1.88  59 1.89   7 3.05  12 3.06   5 3.06   6 3.06
                            11 3.06   4 3.06  35 3.10  19 3.10  29 3.10  21 3.10  25 3.10  33 3.10
  24  0.222  0.778  0.750-  42 1.88  48 1.88  40 1.88  60 1.89  12 3.05   5 3.05   7 3.05  11 3.05
                             4 3.05   6 3.06  36 3.09  20 3.09  26 3.10  34 3.10  30 3.10  22 3.10
  25  0.556  0.111  0.250-  49 1.88  47 1.89  43 1.89  61 1.89  14 3.05  12 3.06   9 3.06  13 3.06
                            11 3.06   8 3.06  33 3.09  31 3.09  23 3.10  19 3.10  29 3.10  27 3.10
  26  0.556  0.111  0.750-  50 1.88  48 1.88  44 1.88  62 1.89  13 3.05  14 3.05  11 3.05   8 3.05
                            12 3.05   9 3.05  30 3.08  28 3.08  34 3.09  32 3.09  24 3.10  20 3.10
  27  0.555  0.445  0.249-  45 1.87  51 1.88  43 1.88  63 1.93  10 3.05  16 3.05   9 3.05   1 3.07
                            15 3.07   8 3.07  21 3.08  29 3.08  19 3.10  35 3.10  33 3.10  25 3.10
  28  0.556  0.444  0.749-  52 1.87  44 1.87  64 1.88  46 1.93  15 3.04   8 3.04   1 3.05  16 3.06
                             9 3.06  10 3.06  34 3.08  26 3.08  20 3.10  36 3.10  22 3.12  30 3.12
  29  0.555  0.777  0.249-  45 1.87  53 1.88  47 1.88  65 1.93  10 3.05  18 3.05  12 3.05   1 3.07
                            17 3.07  11 3.07  21 3.08  27 3.08  23 3.10  35 3.10  31 3.10  25 3.10
  30  0.556  0.779  0.749-  54 1.87  48 1.87  66 1.88  46 1.93  17 3.04  11 3.04   1 3.05  18 3.06
                            12 3.06  10 3.06  32 3.08  26 3.08  24 3.10  36 3.10  22 3.12  28 3.12
  31  0.889  0.111  0.250-  49 1.88  37 1.89  53 1.89  67 1.89  14 3.05   3 3.06  18 3.06  13 3.06
                             2 3.06  17 3.06  25 3.09  33 3.09  19 3.10  35 3.10  21 3.10  29 3.10
  32  0.889  0.111  0.750-  50 1.88  38 1.88  54 1.88  68 1.89  13 3.05  14 3.05   2 3.05  17 3.05
                             3 3.05  18 3.05  22 3.08  30 3.08  26 3.09  34 3.09  20 3.10  36 3.10
  33  0.889  0.444  0.250-  49 1.88  39 1.89  51 1.89  69 1.89  14 3.05   5 3.06  16 3.06  13 3.06
                             4 3.06  15 3.06  25 3.09  31 3.09  23 3.10  35 3.10  21 3.10  27 3.10
  34  0.889  0.444  0.750-  50 1.88  40 1.88  52 1.88  70 1.89  13 3.05  14 3.05   4 3.05  15 3.05
                             5 3.05  16 3.05  22 3.08  28 3.08  26 3.09  32 3.09  24 3.10  36 3.10
  35  0.889  0.778  0.250-  41 1.88  51 1.88  53 1.88  71 1.89   7 3.05  16 3.06  18 3.06   6 3.06
                            15 3.06  17 3.06  19 3.10  23 3.10  27 3.10  29 3.10  31 3.10  33 3.10
  36  0.889  0.778  0.750-  42 1.88  52 1.88  54 1.88  72 1.89  16 3.05  18 3.05   7 3.05  15 3.05
                            17 3.05   6 3.06  20 3.09  24 3.09  32 3.10  34 3.10  28 3.10  30 3.10
  37  0.112  0.223  0.191-  21 1.88  19 1.88  31 1.89   3 1.89
  38  0.111  0.222  0.690-  22 1.87  20 1.88   2 1.88  32 1.88
  39  0.112  0.555  0.191-  21 1.88  23 1.88  33 1.89   5 1.89
  40  0.111  0.556  0.690-  22 1.87  24 1.88   4 1.88  34 1.88
  41  0.111  0.889  0.191-  35 1.88  19 1.88  23 1.88   7 1.89
  42  0.111  0.889  0.690-  36 1.88  20 1.88  24 1.88   6 1.89
  43  0.445  0.223  0.191-  27 1.88  19 1.88  25 1.89   9 1.89
  44  0.444  0.222  0.690-  28 1.87  20 1.88   8 1.88  26 1.88
  45  0.444  0.556  0.189-  21 1.87  29 1.87  27 1.87  10 1.88
  46  0.444  0.556  0.680-   1 1.77  22 1.93  30 1.93  28 1.93
  47  0.445  0.888  0.191-  29 1.88  23 1.88  25 1.89  12 1.89
  48  0.444  0.889  0.690-  30 1.87  24 1.88  11 1.88  26 1.88
  49  0.778  0.222  0.190-  25 1.88  33 1.88  31 1.88  14 1.89
  50  0.778  0.222  0.691-  26 1.88  34 1.88  32 1.88  13 1.89
  51  0.777  0.555  0.191-  27 1.88  35 1.88  33 1.89  16 1.89
  52  0.778  0.556  0.690-  28 1.87  36 1.88  15 1.88  34 1.88
  53  0.777  0.888  0.191-  29 1.88  35 1.88  31 1.89  18 1.89
  54  0.778  0.889  0.690-  30 1.87  36 1.88  17 1.88  32 1.88
  55  0.222  0.111  0.440-   8 1.88   2 1.88   6 1.88  19 1.89
  56  0.222  0.111  0.941-   7 1.88   9 1.88   3 1.88  20 1.89
  57  0.236  0.451  0.443-   1 1.77  21 1.93   2 1.93   4 1.93
  58  0.223  0.445  0.939-  10 1.88  22 1.88   3 1.89   5 1.89
  59  0.222  0.778  0.440-  11 1.88   4 1.88   6 1.88  23 1.89
  60  0.222  0.778  0.941-   7 1.88  12 1.88   5 1.88  24 1.89
  61  0.556  0.111  0.440-  13 1.89  25 1.89  11 1.89   8 1.89
  62  0.555  0.111  0.940-  12 1.88   9 1.88  14 1.88  26 1.89
  63  0.549  0.451  0.443-   1 1.77  27 1.93  15 1.93   8 1.93
  64  0.555  0.445  0.939-  10 1.88  28 1.88  16 1.89   9 1.89
  65  0.549  0.764  0.443-   1 1.77  29 1.93  17 1.93  11 1.93
  66  0.555  0.777  0.939-  10 1.88  30 1.88  18 1.89  12 1.89
  67  0.889  0.111  0.440-  13 1.89  31 1.89   2 1.89  17 1.89
  68  0.889  0.111  0.940-   3 1.88  18 1.88  14 1.88  32 1.89
  69  0.889  0.444  0.440-  13 1.89  33 1.89   4 1.89  15 1.89
  70  0.889  0.445  0.940-   5 1.88  16 1.88  14 1.88  34 1.89
  71  0.889  0.778  0.440-  15 1.88  17 1.88   6 1.88  35 1.89
  72  0.889  0.778  0.941-   7 1.88  16 1.88  18 1.88  36 1.89

  LATTYP: Found a hexagonal cell.
 ALAT       =     9.2872017641
 C/A-ratio  =     1.0669595981
  
  Lattice vectors:
  
 A1 = (   9.2872018814,   0.0000000000,   0.0000000000)
 A2 = (  -4.6436029654,   8.0429537929,   0.0000000000)
 A3 = (   0.0000000000,   0.0000000000,   9.9090690613)


Analysis of symmetry for initial positions (statically):
=====================================================================
 Subroutine PRICEL returns:
 Original cell was already a primitive cell.
 

 Routine SETGRP: Setting up the symmetry group for a 
 hexagonal supercell.


 Subroutine GETGRP returns: Found  6 space group operations
 (whereof  2 operations were pure point group operations)
 out of a pool of 24 trial point group operations.


The static configuration has the point symmetry C_1h.
 The point group associated with its full space group is C_3v.


Analysis of symmetry for dynamics (positions and initial velocities):
=====================================================================
 Subroutine PRICEL returns:
 Original cell was already a primitive cell.
 

 Routine SETGRP: Setting up the symmetry group for a 
 hexagonal supercell.


 Subroutine GETGRP returns: Found  6 space group operations
 (whereof  2 operations were pure point group operations)
 out of a pool of 24 trial point group operations.


The dynamic configuration has the point symmetry C_1h.
 The point group associated with its full space group is C_3v.


 Subroutine INISYM returns: Found  6 space group operations
 (whereof  2 operations are pure point group operations),
 and found     1 'primitive' translations



 KPOINTS: 0.030  15  15   7  108  0.040  201    9 
  k-points in reciprocal lattice
Space group operators:
 irot       det(A)        alpha          n_x          n_y          n_z        tau_x        tau_y        tau_z
    1     1.000000     0.000000     1.000000     0.000000     0.000000     0.000000     0.000000     0.000000
    2    -1.000000   180.000000    -0.500000    -0.866025     0.000000     0.000000     0.000000     0.000000
    3     1.000000   120.000000     0.000000     0.000000    -1.000000     0.000000     0.666667     0.000000
    4     1.000000   120.000000     0.000000     0.000000     1.000000     0.333333     0.000000     0.000000
    5    -1.000000   179.999999     1.000000     0.000000     0.000000     0.333333     0.000000     0.000000
    6    -1.000000   180.000000     0.500000    -0.866025     0.000000     0.000000     0.666667     0.000000

 ----------------------------------------------------------------------------- 
|                                                                             |
|           W    W    AA    RRRRR   N    N  II  N    N   GGGG   !!!           |
|           W    W   A  A   R    R  NN   N  II  NN   N  G    G  !!!           |
|           W    W  A    A  R    R  N N  N  II  N N  N  G       !!!           |
|           W WW W  AAAAAA  RRRRR   N  N N  II  N  N N  G  GGG   !            |
|           WW  WW  A    A  R   R   N   NN  II  N   NN  G    G                |
|           W    W  A    A  R    R  N    N  II  N    N   GGGG   !!!           |
|                                                                             |
|      Your generating k-point grid is not commensurate to the symmetry       |
|      of the lattice.  This can cause   slow convergence with respect        |
|      to k-points for HF type calculations                                   |
|      suggested SOLUTIONS:                                                   |
|       ) if not already the case, use automatic k-point generation           |
|       ) shift your grid to Gamma (G) (e.g. required for hex or fcc lattice) |
|                                                                             |
 ----------------------------------------------------------------------------- 

 
 Subroutine IBZKPT_HF returns following result:
 ==============================================
 
 Found     86 k-points in 1st BZ
 the following     86 k-points will be used (e.g. in the exchange kernel)
 Following reciprocal coordinates:   # in IRBZ
  0.000000  0.000000  0.000000    0.12500000   1 t-inv F
  0.500000  0.000000  0.000000    0.12500000   2 t-inv F
  0.000000  0.000000  0.500000    0.12500000   3 t-inv F
  0.500000  0.000000  0.500000    0.12500000   4 t-inv F
  0.000000  0.000000  0.000000    0.00000000   5 t-inv F
  0.017857  0.000000  0.000000    0.00000000   6 t-inv F
  0.035714  0.000000  0.000000    0.00000000   7 t-inv F
  0.053571  0.000000  0.000000    0.00000000   8 t-inv F
  0.071429  0.000000  0.000000    0.00000000   9 t-inv F
  0.089286  0.000000  0.000000    0.00000000  10 t-inv F
  0.107143  0.000000  0.000000    0.00000000  11 t-inv F
  0.125000  0.000000  0.000000    0.00000000  12 t-inv F
  0.142857  0.000000  0.000000    0.00000000  13 t-inv F
  0.160714  0.000000  0.000000    0.00000000  14 t-inv F
  0.178571  0.000000  0.000000    0.00000000  15 t-inv F
  0.196429  0.000000  0.000000    0.00000000  16 t-inv F
  0.214286  0.000000  0.000000    0.00000000  17 t-inv F
  0.232143  0.000000  0.000000    0.00000000  18 t-inv F
  0.250000  0.000000  0.000000    0.00000000  19 t-inv F
  0.267857  0.000000  0.000000    0.00000000  20 t-inv F
  0.285714  0.000000  0.000000    0.00000000  21 t-inv F
  0.303571  0.000000  0.000000    0.00000000  22 t-inv F
  0.321429  0.000000  0.000000    0.00000000  23 t-inv F
  0.339286  0.000000  0.000000    0.00000000  24 t-inv F
  0.357143  0.000000  0.000000    0.00000000  25 t-inv F
  0.375000  0.000000  0.000000    0.00000000  26 t-inv F
  0.392857  0.000000  0.000000    0.00000000  27 t-inv F
  0.410714  0.000000  0.000000    0.00000000  28 t-inv F
  0.428571  0.000000  0.000000    0.00000000  29 t-inv F
  0.446429  0.000000  0.000000    0.00000000  30 t-inv F
  0.464286  0.000000  0.000000    0.00000000  31 t-inv F
  0.482143  0.000000  0.000000    0.00000000  32 t-inv F
  0.500000  0.000000  0.000000    0.00000000  33 t-inv F
  0.500000  0.000000  0.000000    0.00000000  34 t-inv F
  0.488889  0.022222  0.000000    0.00000000  35 t-inv F
  0.477778  0.044444  0.000000    0.00000000  36 t-inv F
  0.466667  0.066667  0.000000    0.00000000  37 t-inv F
  0.455556  0.088889  0.000000    0.00000000  38 t-inv F
  0.444444  0.111111  0.000000    0.00000000  39 t-inv F
  0.433333  0.133333  0.000000    0.00000000  40 t-inv F
  0.422222  0.155556  0.000000    0.00000000  41 t-inv F
  0.411111  0.177778  0.000000    0.00000000  42 t-inv F
  0.400000  0.200000  0.000000    0.00000000  43 t-inv F
  0.388889  0.222222  0.000000    0.00000000  44 t-inv F
  0.377778  0.244444  0.000000    0.00000000  45 t-inv F
  0.366667  0.266667  0.000000    0.00000000  46 t-inv F
  0.355556  0.288889  0.000000    0.00000000  47 t-inv F
  0.344444  0.311111  0.000000    0.00000000  48 t-inv F
  0.333333  0.333333  0.000000    0.00000000  49 t-inv F
  0.333333  0.333333  0.000000    0.00000000  50 t-inv F
  0.322917  0.322917  0.000000    0.00000000  51 t-inv F
  0.312500  0.312500  0.000000    0.00000000  52 t-inv F
  0.302083  0.302083  0.000000    0.00000000  53 t-inv F
  0.291667  0.291667  0.000000    0.00000000  54 t-inv F
  0.281250  0.281250  0.000000    0.00000000  55 t-inv F
  0.270833  0.270833  0.000000    0.00000000  56 t-inv F
  0.260417  0.260417  0.000000    0.00000000  57 t-inv F
  0.250000  0.250000  0.000000    0.00000000  58 t-inv F
  0.239583  0.239583  0.000000    0.00000000  59 t-inv F
  0.229167  0.229167  0.000000    0.00000000  60 t-inv F
  0.218750  0.218750  0.000000    0.00000000  61 t-inv F
  0.208333  0.208333  0.000000    0.00000000  62 t-inv F
  0.197917  0.197917  0.000000    0.00000000  63 t-inv F
  0.187500  0.187500  0.000000    0.00000000  64 t-inv F
  0.177083  0.177083  0.000000    0.00000000  65 t-inv F
  0.166667  0.166667  0.000000    0.00000000  66 t-inv F
  0.156250  0.156250  0.000000    0.00000000  67 t-inv F
  0.145833  0.145833  0.000000    0.00000000  68 t-inv F
  0.135417  0.135417  0.000000    0.00000000  69 t-inv F
  0.125000  0.125000  0.000000    0.00000000  70 t-inv F
  0.114583  0.114583  0.000000    0.00000000  71 t-inv F
  0.104167  0.104167  0.000000    0.00000000  72 t-inv F
  0.093750  0.093750  0.000000    0.00000000  73 t-inv F
  0.083333  0.083333  0.000000    0.00000000  74 t-inv F
  0.072917  0.072917  0.000000    0.00000000  75 t-inv F
  0.062500  0.062500  0.000000    0.00000000  76 t-inv F
  0.052083  0.052083  0.000000    0.00000000  77 t-inv F
  0.041667  0.041667  0.000000    0.00000000  78 t-inv F
  0.031250  0.031250  0.000000    0.00000000  79 t-inv F
  0.020833  0.020833  0.000000    0.00000000  80 t-inv F
  0.010417  0.010417  0.000000    0.00000000  81 t-inv F
  0.000000  0.000000  0.000000    0.00000000  82 t-inv F
  0.000000 -0.500000  0.000000    0.12500000   2 t-inv F
 -0.500000  0.500000  0.000000    0.12500000   2 t-inv F
  0.000000 -0.500000  0.500000    0.12500000   4 t-inv F
 -0.500000  0.500000  0.500000    0.12500000   4 t-inv F


--------------------------------------------------------------------------------------------------------




 Dimension of arrays:
   k-points           NKPTS =     82   k-points in BZ     NKDIM =     86   number of bands    NBANDS=    184
   number of dos      NEDOS =    301   number of ions     NIONS =     72
   non local maximal  LDIM  =      4   non local SUM 2l+1 LMDIM =      8
   total plane-waves  NPLWV = 157464
   max r-space proj   IRMAX =   1883   max aug-charges    IRDMAX=   8478
   dimension x,y,z NGX =    54 NGY =   54 NGZ =   54
   dimension x,y,z NGXF=   108 NGYF=  108 NGZF=  108
   support grid    NGXF=   108 NGYF=  108 NGZF=  108
   ions per type =               1  35  36
 NGX,Y,Z   is equivalent  to a cutoff of   9.67,  9.67,  9.06 a.u.
 NGXF,Y,Z  is equivalent  to a cutoff of  19.33, 19.33, 18.12 a.u.


 I would recommend the setting:
   dimension x,y,z NGX =    51 NGY =   51 NGZ =   54
 SYSTEM =  unknown system                          
 POSCAR =  Al2 N2                                  

 Startparameter for this run:
   NWRITE =      2    write-flag & timer
   PREC   = normal    normal or accurate (medium, high low for compatibility)
   ISTART =      1    job   : 0-new  1-cont  2-samecut
   ICHARG =      0    charge: 1-file 2-atom 10-const
   ISPIN  =      1    spin polarized calculation?
   LNONCOLLINEAR =      F non collinear calculations
   LSORBIT =      F    spin-orbit coupling
   INIWAV =      1    electr: 0-lowe 1-rand  2-diag
   LASPH  =      F    aspherical Exc in radial PAW
   METAGGA=      F    non-selfconsistent MetaGGA calc.

 Electronic Relaxation 1
   ENCUT  =  500.0 eV  36.75 Ry    6.06 a.u.  16.93 16.93 18.07*2*pi/ulx,y,z
   ENINI  =  500.0     initial cutoff
   ENAUG  =  627.1 eV  augmentation charge cutoff
   NELM   =    300;   NELMIN=  8; NELMDL=  0     # of ELM steps 
   EDIFF  = 0.1E-04   stopping-criterion for ELM
   LREAL  =      T    real-space projection
   NLSPLINE    = F    spline interpolate recip. space projectors
   LCOMPAT=      F    compatible to vasp.4.4
   GGA_COMPAT  = T    GGA compatible to vasp.4.4-vasp.4.6
   LMAXPAW     = -100 max onsite density
   LMAXMIX     =    2 max onsite mixed and CHGCAR
   VOSKOWN=      0    Vosko Wilk Nusair interpolation
   ROPT   =   -0.00050  -0.00050  -0.00050
 Ionic relaxation
   EDIFFG = -.2E-01   stopping-criterion for IOM
   NSW    =      0    number of steps for IOM
   NBLOCK =      1;   KBLOCK =      1    inner block; outer block 
   IBRION =     -1    ionic relax: 0-MD 1-quasi-New 2-CG
   NFREE  =      1    steps in history (QN), initial steepest desc. (CG)
   ISIF   =      2    stress and relaxation
   IWAVPR =     10    prediction:  0-non 1-charg 2-wave 3-comb
   ISYM   =      3    0-nonsym 1-usesym 2-fastsym
   LCORR  =      T    Harris-Foulkes like correction to forces

   POTIM  = 0.0500    time-step for ionic-motion
   TEIN   =    0.0    initial temperature
   TEBEG  =    0.0;   TEEND  =   0.0 temperature during run
   SMASS  =  -3.00    Nose mass-parameter (am)
   estimated Nose-frequenzy (Omega)   =  0.10E-29 period in steps =****** mass=  -0.197E-26a.u.
   SCALEE = 1.0000    scale energy and forces
   NPACO  =    256;   APACO  = 16.0  distance and # of slots for P.C.
   PSTRESS=    0.0 pullay stress

  Mass of Ions in am
   POMASS =  28.09 26.98 14.00
  Ionic Valenz
   ZVAL   =   4.00  3.00  5.00
  Atomic Wigner-Seitz radii
   RWIGS  =  -1.00 -1.00 -1.00
  virtual crystal weights 
   VCA    =   1.00  1.00  1.00
   NELECT =     290.0000    total number of electrons
   NUPDOWN=      -1.0000    fix difference up-down

 DOS related values:
   EMIN   =  10.00;   EMAX   =-10.00  energy-range for DOS
   EFERMI =   0.00
   ISMEAR =     0;   SIGMA  =   0.01  broadening in eV -4-tet -1-fermi 0-gaus

 Electronic relaxation 2 (details)
   IALGO  =     38    algorithm
   LDIAG  =      T    sub-space diagonalisation (order eigenvalues)
   LSUBROT=      F    optimize rotation matrix (better conditioning)
   TURBO    =      0    0=normal 1=particle mesh
   IRESTART =      0    0=no restart 2=restart with 2 vectors
   NREBOOT  =      0    no. of reboots
   NMIN     =      0    reboot dimension
   EREF     =   0.00    reference energy to select bands
   IMIX   =      1    mixing-type and parameters
     AMIX     =   0.40;   BMIX     =  1.00
     AMIX_MAG =   1.60;   BMIX_MAG =  1.00
     AMIN     =   0.10
     WC   =   100.;   INIMIX=   1;  MIXPRE=   1;  MAXMIX= -45

 Intra band minimization:
   WEIMIN = 0.0000     energy-eigenvalue tresh-hold
   EBREAK =  0.14E-07  absolut break condition
   DEPER  =   0.30     relativ break condition  

   TIME   =   0.40     timestep for ELM

  volume/ion in A,a.u.               =      10.28        69.37
  Fermi-wavevector in a.u.,A,eV,Ry     =   1.197925  2.263751 19.524700  1.435025
  Thomas-Fermi vector in A             =   2.333828

 Write flags
   LWAVE  =      F    write WAVECAR
   LCHARG =      F    write CHGCAR
   LVTOT  =      F    write LOCPOT, total local potential
   LVHAR  =      F    write LOCPOT, Hartree potential only
   LELF   =      F    write electronic localiz. function (ELF)
   LORBIT =     11    0 simple, 1 ext, 2 COOP (PROOUT)


 Dipole corrections
   LMONO  =      F    monopole corrections only (constant potential shift)
   LDIPOL =      F    correct potential (dipole corrections)
   IDIPOL =      0    1-x, 2-y, 3-z, 4-all directions 
   EPSILON=  1.0000000 bulk dielectric constant

 Exchange correlation treatment:
   GGA     =    --    GGA type
   LEXCH   =     8    internal setting for exchange type
   VOSKOWN=      0    Vosko Wilk Nusair interpolation
   EXXOEP  =     0    0=HF, 1=EXX-LHF (local Hartree Fock) 2=EXX OEP
   LHFCALC =     T    Hartree Fock is set to
   LSYMGRAD=     F    symmetrize gradient (conserves proper symmetry)
   PRECFOCK=fast      Normal, Fast or Accurate (Low or Medium for compatibility)
   LRHFCALC=     F    long range Hartree Fock
   LRSCOR  =     F    long range correlation only (use DFT for short range part)
   LTHOMAS =     F    Thomas Fermi screening in HF
   LMODELHF=     F    short range full HF, long range fraction AEXX
   ENCUT4O =  -1.0   cutoff for four orbital integrals eV
   LMAXFOCK=     4    L truncation for augmentation on plane wave grid
   LMAXFOCKAE=  -1    L truncation for all-electron charge restoration on plane wave grid
   NMAXFOCKAE=   1    number of basis functions for all-electron charge restoration
   LFOCKAEDFT=     F  apply the AE augmentation even for DFT
   NKREDX  =     1    reduce k-point grid by
   NKREDY  =     1    reduce k-point grid by
   NKREDZ  =     1    reduce k-point grid by
   SHIFTRED=     F    shift reduced grid of Gamma
   HFKIDENT=     F    idential grid for each k-point
   ODDONLY =     F    use only odd q-grid points
   EVENONLY=     F    use only even q-grid points
   HFALPHA =   -1.0000 decay constant for conv. correction
   MCALPHA =    0.0000 extent of test-charge in conv. correction in multipole expansion
   AEXX    =    0.3300 exact exchange contribution
   HFSCREEN=    0.2000 screening length (either q_TF or 0.3 A-1)
   HFSCREENC=   0.2000 screening length for correlation (either q_TF or 0.3 A-1)
   HFRCUT  =    0.0000 spherical cutoff for potential kernel
   ALDAX   =    0.6700 LDA exchange part
   AGGAX   =    0.6700 GGA exchange part
   ALDAC   =    1.0000 LDA correlation
   AGGAC   =    1.0000 GGA correlation
   NBANDSGWLOW=     1    first orbital included in HF term
   ENCUTFOCK=  -1.0 apply spherical cutoff to Coloumb kernel
 Linear response parameters
   LEPSILON=     F    determine dielectric tensor
   LRPA    =     F    only Hartree local field effects (RPA)
   LNABLA  =     F    use nabla operator in PAW spheres
   LVEL    =     F    velocity operator in full k-point grid
   LINTERFAST=   F  fast interpolation
   KINTER  =     0    interpolate to denser k-point grid
   CSHIFT  =0.1000    complex shift for real part using Kramers Kronig
   OMEGAMAX=  -1.0    maximum frequency
   DEG_THRESHOLD= 0.2000000E-02 threshold for treating states as degnerate
   RTIME   =    0.100 relaxation time in fs

 Orbital magnetization related:
   ORBITALMAG=     F  switch on orbital magnetization
   LCHIMAG   =     F  perturbation theory with respect to B field
   DQ        =  0.001000  dq finite difference perturbation B field



--------------------------------------------------------------------------------------------------------


 Static calculation
 charge density and potential will be updated during run
 non-spin polarized calculation
 Variant of blocked Davidson
 Davidson routine will perform the subspace rotation
 perform sub-space diagonalisation
    after iterative eigenvector-optimisation
 Kerker-like  mixing scheme
 using additional bands           39
 real space projection scheme for non local part
 use partial core corrections
 calculate Harris-corrections to forces   (improved forces if not selfconsistent)
 use gradient corrections 
 use of overlap-Matrix (Vanderbilt PP)
 Gauss-broadening in eV      SIGMA  =   0.01


--------------------------------------------------------------------------------------------------------


  energy-cutoff  :      500.00
  volume of cell :      740.17
      direct lattice vectors                 reciprocal lattice vectors
     9.287201881  0.000000000  0.000000000     0.107675058  0.062166243 -0.000000000
    -4.643602965  8.042953793  0.000000000     0.000000000  0.124332431  0.000000000
     0.000000000  0.000000000  9.909069061     0.000000000 -0.000000000  0.100917654

  length of vectors
     9.287201881  9.287203789  9.909069061     0.124332457  0.124332431  0.100917654



 old parameters found on file WAVECAR:
  energy-cutoff  :      500.00
  volume of cell :      740.17
      direct lattice vectors                 reciprocal lattice vectors
     9.287201881  0.000000000  0.000000000     0.107675058  0.062166243 -0.000000000
    -4.643602965  8.042953793  0.000000000     0.000000000  0.124332431  0.000000000
     0.000000000  0.000000000  9.909069061     0.000000000 -0.000000000  0.100917654

  length of vectors


 k-points in units of 2pi/SCALE and weight: 0.030  15  15   7  108  0.040  201    9 
   0.00000000  0.00000000  0.00000000       0.125
   0.05383753  0.03108312  0.00000000       0.375
   0.00000000  0.00000000  0.05045883       0.125
   0.05383753  0.03108312  0.05045883       0.375
   0.00000000  0.00000000  0.00000000       0.000
   0.00192277  0.00111011  0.00000000       0.000
   0.00384554  0.00222022  0.00000000       0.000
   0.00576831  0.00333033  0.00000000       0.000
   0.00769108  0.00444045  0.00000000       0.000
   0.00961384  0.00555056  0.00000000       0.000
   0.01153661  0.00666067  0.00000000       0.000
   0.01345938  0.00777078  0.00000000       0.000
   0.01538215  0.00888089  0.00000000       0.000
   0.01730492  0.00999100  0.00000000       0.000
   0.01922769  0.01110111  0.00000000       0.000
   0.02115046  0.01221123  0.00000000       0.000
   0.02307323  0.01332134  0.00000000       0.000
   0.02499600  0.01443145  0.00000000       0.000
   0.02691876  0.01554156  0.00000000       0.000
   0.02884153  0.01665167  0.00000000       0.000
   0.03076430  0.01776178  0.00000000       0.000
   0.03268707  0.01887190  0.00000000       0.000
   0.03460984  0.01998201  0.00000000       0.000
   0.03653261  0.02109212  0.00000000       0.000
   0.03845538  0.02220223  0.00000000       0.000
   0.04037815  0.02331234  0.00000000       0.000
   0.04230092  0.02442245  0.00000000       0.000
   0.04422368  0.02553256  0.00000000       0.000
   0.04614645  0.02664268  0.00000000       0.000
   0.04806922  0.02775279  0.00000000       0.000
   0.04999199  0.02886290  0.00000000       0.000
   0.05191476  0.02997301  0.00000000       0.000
   0.05383753  0.03108312  0.00000000       0.000
   0.05383753  0.03108312  0.00000000       0.000
   0.05264114  0.03315533  0.00000000       0.000
   0.05144475  0.03522754  0.00000000       0.000
   0.05024836  0.03729974  0.00000000       0.000
   0.04905197  0.03937195  0.00000000       0.000
   0.04785558  0.04144416  0.00000000       0.000
   0.04665919  0.04351636  0.00000000       0.000
   0.04546280  0.04558857  0.00000000       0.000
   0.04426641  0.04766078  0.00000000       0.000
   0.04307002  0.04973298  0.00000000       0.000
   0.04187363  0.05180519  0.00000000       0.000
   0.04067724  0.05387740  0.00000000       0.000
   0.03948085  0.05594960  0.00000000       0.000
   0.03828447  0.05802181  0.00000000       0.000
   0.03708808  0.06009402  0.00000000       0.000
   0.03589169  0.06216622  0.00000000       0.000
   0.03589169  0.06216622  0.00000000       0.000
   0.03477007  0.06022353  0.00000000       0.000
   0.03364846  0.05828084  0.00000000       0.000
   0.03252684  0.05633814  0.00000000       0.000
   0.03140523  0.05439545  0.00000000       0.000
   0.03028361  0.05245275  0.00000000       0.000
   0.02916199  0.05051006  0.00000000       0.000
   0.02804038  0.04856736  0.00000000       0.000
   0.02691876  0.04662467  0.00000000       0.000
   0.02579715  0.04468197  0.00000000       0.000
   0.02467553  0.04273928  0.00000000       0.000
   0.02355392  0.04079658  0.00000000       0.000
   0.02243230  0.03885389  0.00000000       0.000
   0.02131069  0.03691120  0.00000000       0.000
   0.02018907  0.03496850  0.00000000       0.000
   0.01906746  0.03302581  0.00000000       0.000
   0.01794584  0.03108311  0.00000000       0.000
   0.01682423  0.02914042  0.00000000       0.000
   0.01570261  0.02719772  0.00000000       0.000
   0.01458100  0.02525503  0.00000000       0.000
   0.01345938  0.02331233  0.00000000       0.000
   0.01233777  0.02136964  0.00000000       0.000
   0.01121615  0.01942695  0.00000000       0.000
   0.01009454  0.01748425  0.00000000       0.000
   0.00897292  0.01554156  0.00000000       0.000
   0.00785131  0.01359886  0.00000000       0.000
   0.00672969  0.01165617  0.00000000       0.000
   0.00560808  0.00971347  0.00000000       0.000
   0.00448646  0.00777078  0.00000000       0.000
   0.00336485  0.00582808  0.00000000       0.000
   0.00224323  0.00388539  0.00000000       0.000
   0.00112162  0.00194269  0.00000000       0.000
   0.00000000  0.00000000  0.00000000       0.000

 k-points in reciprocal lattice and weights: 0.030  15  15   7  108  0.040  201    9 
   0.00000000  0.00000000  0.00000000       0.125
   0.50000000  0.00000000  0.00000000       0.375
   0.00000000  0.00000000  0.50000000       0.125
   0.50000000  0.00000000  0.50000000       0.375
   0.00000000  0.00000000  0.00000000       0.000
   0.01785714  0.00000000  0.00000000       0.000
   0.03571429  0.00000000  0.00000000       0.000
   0.05357143  0.00000000  0.00000000       0.000
   0.07142857  0.00000000  0.00000000       0.000
   0.08928571  0.00000000  0.00000000       0.000
   0.10714286  0.00000000  0.00000000       0.000
   0.12500000  0.00000000  0.00000000       0.000
   0.14285714  0.00000000  0.00000000       0.000
   0.16071429  0.00000000  0.00000000       0.000
   0.17857143  0.00000000  0.00000000       0.000
   0.19642857  0.00000000  0.00000000       0.000
   0.21428571  0.00000000  0.00000000       0.000
   0.23214286  0.00000000  0.00000000       0.000
   0.25000000  0.00000000  0.00000000       0.000
   0.26785714  0.00000000  0.00000000       0.000
   0.28571429  0.00000000  0.00000000       0.000
   0.30357143  0.00000000  0.00000000       0.000
   0.32142857  0.00000000  0.00000000       0.000
   0.33928571  0.00000000  0.00000000       0.000
   0.35714286  0.00000000  0.00000000       0.000
   0.37500000  0.00000000  0.00000000       0.000
   0.39285714  0.00000000  0.00000000       0.000
   0.41071429  0.00000000  0.00000000       0.000
   0.42857143  0.00000000  0.00000000       0.000
   0.44642857  0.00000000  0.00000000       0.000
   0.46428571  0.00000000  0.00000000       0.000
   0.48214286  0.00000000  0.00000000       0.000
   0.50000000  0.00000000  0.00000000       0.000
   0.50000000  0.00000000  0.00000000       0.000
   0.48888889  0.02222222  0.00000000       0.000
   0.47777778  0.04444444  0.00000000       0.000
   0.46666667  0.06666667  0.00000000       0.000
   0.45555556  0.08888889  0.00000000       0.000
   0.44444444  0.11111111  0.00000000       0.000
   0.43333333  0.13333333  0.00000000       0.000
   0.42222222  0.15555556  0.00000000       0.000
   0.41111111  0.17777778  0.00000000       0.000
   0.40000000  0.20000000  0.00000000       0.000
   0.38888889  0.22222222  0.00000000       0.000
   0.37777778  0.24444444  0.00000000       0.000
   0.36666667  0.26666667  0.00000000       0.000
   0.35555556  0.28888889  0.00000000       0.000
   0.34444444  0.31111111  0.00000000       0.000
   0.33333333  0.33333333  0.00000000       0.000
   0.33333333  0.33333333  0.00000000       0.000
   0.32291667  0.32291667  0.00000000       0.000
   0.31250000  0.31250000  0.00000000       0.000
   0.30208333  0.30208333  0.00000000       0.000
   0.29166667  0.29166667  0.00000000       0.000
   0.28125000  0.28125000  0.00000000       0.000
   0.27083333  0.27083333  0.00000000       0.000
   0.26041667  0.26041667  0.00000000       0.000
   0.25000000  0.25000000  0.00000000       0.000
   0.23958333  0.23958333  0.00000000       0.000
   0.22916667  0.22916667  0.00000000       0.000
   0.21875000  0.21875000  0.00000000       0.000
   0.20833333  0.20833333  0.00000000       0.000
   0.19791667  0.19791667  0.00000000       0.000
   0.18750000  0.18750000  0.00000000       0.000
   0.17708333  0.17708333  0.00000000       0.000
   0.16666667  0.16666667  0.00000000       0.000
   0.15625000  0.15625000  0.00000000       0.000
   0.14583333  0.14583333  0.00000000       0.000
   0.13541667  0.13541667  0.00000000       0.000
   0.12500000  0.12500000  0.00000000       0.000
   0.11458333  0.11458333  0.00000000       0.000
   0.10416667  0.10416667  0.00000000       0.000
   0.09375000  0.09375000  0.00000000       0.000
   0.08333333  0.08333333  0.00000000       0.000
   0.07291667  0.07291667  0.00000000       0.000
   0.06250000  0.06250000  0.00000000       0.000
   0.05208333  0.05208333  0.00000000       0.000
   0.04166667  0.04166667  0.00000000       0.000
   0.03125000  0.03125000  0.00000000       0.000
   0.02083333  0.02083333  0.00000000       0.000
   0.01041667  0.01041667  0.00000000       0.000
   0.00000000  0.00000000  0.00000000       0.000

 position of ions in fractional coordinates (direct lattice) 
   0.44444433  0.55555564  0.50078092
   0.11151224  0.22184145  0.50033627
   0.11125770  0.22218609  0.99958065
   0.11151224  0.55633777  0.50033627
   0.11125770  0.55573859  0.99958065
   0.11111099  0.88888901  0.49984223
   0.11111099  0.88888901  0.99997130
   0.44366221  0.22184145  0.50033627
   0.44426138  0.22218609  0.99958065
   0.44444433  0.55555564  0.99919750
   0.44366221  0.88848777  0.50033627
   0.44426138  0.88874231  0.99958065
   0.77777767  0.22222233  0.50078339
   0.77777767  0.22222233  0.99922427
   0.77815855  0.55633777  0.50033627
   0.77781391  0.55573859  0.99958065
   0.77815855  0.88848777  0.50033627
   0.77781391  0.88874231  0.99958065
   0.22219680  0.11105994  0.24972310
   0.22208729  0.11084092  0.75028312
   0.22340173  0.44503403  0.24873859
   0.22059051  0.44362842  0.74908144
   0.22219680  0.77780320  0.24972310
   0.22208729  0.77791271  0.75028312
   0.55627817  0.11147226  0.24958969
   0.55563539  0.11115087  0.74977402
   0.55496594  0.44503403  0.24873859
   0.55637155  0.44362842  0.74908144
   0.55496594  0.77659827  0.24873859
   0.55637155  0.77940949  0.74908144
   0.88852775  0.11147226  0.24958969
   0.88884914  0.11115087  0.74977402
   0.88852775  0.44372180  0.24958969
   0.88884914  0.44436458  0.74977402
   0.88894006  0.77780320  0.24972310
   0.88915909  0.77791271  0.75028312
   0.11161404  0.22292978  0.19079645
   0.11148692  0.22234470  0.69037977
   0.11161404  0.55535124  0.19079645
   0.11148692  0.55580920  0.69037977
   0.11111099  0.88888901  0.19058631
   0.11111099  0.88888901  0.69049855
   0.44464873  0.22292978  0.19079645
   0.44419077  0.22234470  0.69037977
   0.44444433  0.55555564  0.18893564
   0.44444433  0.55555564  0.67973523
   0.44464873  0.88838597  0.19079645
   0.44419077  0.88851309  0.69037977
   0.77777767  0.22222233  0.18955069
   0.77777767  0.22222233  0.69132237
   0.77707022  0.55535124  0.19079645
   0.77765530  0.55580920  0.69037977
   0.77707022  0.88838597  0.19079645
   0.77765530  0.88851309  0.69037977
   0.22238279  0.11143192  0.44023595
   0.22210222  0.11087078  0.94077500
   0.23554752  0.45110693  0.44313448
   0.22301597  0.44484115  0.93914765
   0.22238279  0.77761721  0.44023595
   0.22210222  0.77789778  0.94077500
   0.55565811  0.11116223  0.44003378
   0.55524525  0.11095580  0.94048727
   0.54889304  0.45110693  0.44313448
   0.55515882  0.44484115  0.93914765
   0.54889304  0.76445248  0.44313448
   0.55515882  0.77698403  0.93914765
   0.88883778  0.11116223  0.44003378
   0.88904421  0.11095580  0.94048727
   0.88883778  0.44434186  0.44003378
   0.88904421  0.44475472  0.94048727
   0.88856809  0.77761721  0.44023595
   0.88912923  0.77789778  0.94077500

 position of ions in cartesian coordinates  (Angst):
   1.54786438  4.46830836  4.96227271
   0.00549306  1.78426053  4.95786666
   0.00152874  1.78703246  9.90491369
  -1.54777503  4.47459894  4.95786666
  -1.54735662  4.46977978  9.90491369
  -3.09573744  7.14929327  4.95297113
  -3.09573744  7.14929327  9.90878469
   3.09023685  1.78426053  4.95786666
   3.09420117  1.78703246  9.90491369
   1.54786438  4.46830836  9.90111699
  -0.00540397  7.14606608  4.95786666
  -0.00102125  7.14811330  9.90491369
   6.19146600  1.78732392  4.96229722
   6.19146600  1.78732392  9.90138232
   4.64350385  4.47459894  4.95786666
   4.64308545  4.46977978  9.90491369
   3.10113111  7.14606608  4.95786666
   3.09674839  7.14811330  9.90491369
   1.54786829  0.89324999  2.47452343
   1.54786829  0.89148840  7.43460725
   0.00821560  3.57938813  2.46476787
  -0.01136565  3.56808288  7.42269971
  -1.54822266  6.25583517  2.47452343
  -1.54974825  6.25671597  7.43460725
   4.64863475  0.89656620  2.47320143
   4.64415754  0.89398128  7.42956253
   3.08751941  3.57938813  2.46476787
   3.10710067  3.56808288  7.42269971
   1.54786670  6.24614403  2.46476787
   1.54786670  6.26875452  7.42269971
   7.73430371  0.89656620  2.47320143
   7.73878093  0.89398128  7.42956253
   6.19146873  3.56883396  2.47320143
   6.19146873  3.57400380  7.42956253
   4.64395661  6.25583517  2.47452343
   4.64548220  6.25671597  7.43460725
   0.00138473  1.79301392  1.89061523
   0.00292103  1.78830816  6.84102085
  -1.54224853  4.46666433  1.89061523
  -1.54555569  4.47034769  6.84102085
  -3.09573744  7.14929327  1.88853286
  -3.09573744  7.14929327  6.84219780
   3.09434518  1.79301392  1.89061523
   3.09280887  1.78830816  6.84102085
   1.54786438  4.46830836  1.87217631
   1.54786438  4.46830836  6.73554333
   0.00423085  7.14524730  1.89061523
  -0.00061261  7.14626970  6.84102085
   6.19146600  1.78732392  1.87827088
   6.19146600  1.78732392  6.85036111
   4.63797736  4.46666433  1.89061523
   4.64128452  4.47034769  6.84102085
   3.09149629  7.14524730  1.89061523
   3.09633975  7.14626970  6.84102085
   1.54786829  0.89624177  4.36232844
   1.54786829  0.89172852  9.32220448
   0.09281594  3.62823216  4.39105020
   0.00552865  3.57783681  9.30607892
  -1.54563171  6.25433929  4.36232844
  -1.54954029  6.25659591  9.32220448
   4.64431579  0.89407265  4.36032510
   4.64144008  0.89241236  9.31935329
   3.00291906  3.62823216  4.39105020
   3.09020637  3.57783681  9.30607892
   1.54786673  6.14845595  4.39105020
   1.54786670  6.24924666  9.30607892
   7.73862267  0.89407265  4.36032510
   7.74149838  0.89241236  9.31935329
   6.19146873  3.57382106  4.36032510
   6.19146873  3.57714165  9.31935329
   4.64136566  6.25433929  4.36232844
   4.64527424  6.25659591  9.32220448



--------------------------------------------------------------------------------------------------------


 k-point  1 :   0.0000 0.0000 0.0000  plane waves:   18757
 k-point  2 :   0.5000 0.0000 0.0000  plane waves:   18798
 k-point  3 :   0.0000 0.0000 0.5000  plane waves:   18732
 k-point  4 :   0.5000 0.0000 0.5000  plane waves:   18816
 k-point  5 :   0.0000 0.0000 0.0000  plane waves:   18757
 k-point  6 :   0.0179 0.0000 0.0000  plane waves:   18773
 k-point  7 :   0.0357 0.0000 0.0000  plane waves:   18781
 k-point  8 :   0.0536 0.0000 0.0000  plane waves:   18781
 k-point  9 :   0.0714 0.0000 0.0000  plane waves:   18775
 k-point 10 :   0.0893 0.0000 0.0000  plane waves:   18783
 k-point 11 :   0.1071 0.0000 0.0000  plane waves:   18771
 k-point 12 :   0.1250 0.0000 0.0000  plane waves:   18771
 k-point 13 :   0.1429 0.0000 0.0000  plane waves:   18761
 k-point 14 :   0.1607 0.0000 0.0000  plane waves:   18757
 k-point 15 :   0.1786 0.0000 0.0000  plane waves:   18767
 k-point 16 :   0.1964 0.0000 0.0000  plane waves:   18767
 k-point 17 :   0.2143 0.0000 0.0000  plane waves:   18763
 k-point 18 :   0.2321 0.0000 0.0000  plane waves:   18755
 k-point 19 :   0.2500 0.0000 0.0000  plane waves:   18755
 k-point 20 :   0.2679 0.0000 0.0000  plane waves:   18741
 k-point 21 :   0.2857 0.0000 0.0000  plane waves:   18769
 k-point 22 :   0.3036 0.0000 0.0000  plane waves:   18755
 k-point 23 :   0.3214 0.0000 0.0000  plane waves:   18759
 k-point 24 :   0.3393 0.0000 0.0000  plane waves:   18760
 k-point 25 :   0.3571 0.0000 0.0000  plane waves:   18764
 k-point 26 :   0.3750 0.0000 0.0000  plane waves:   18784
 k-point 27 :   0.3929 0.0000 0.0000  plane waves:   18780
 k-point 28 :   0.4107 0.0000 0.0000  plane waves:   18768
 k-point 29 :   0.4286 0.0000 0.0000  plane waves:   18770
 k-point 30 :   0.4464 0.0000 0.0000  plane waves:   18788
 k-point 31 :   0.4643 0.0000 0.0000  plane waves:   18786
 k-point 32 :   0.4821 0.0000 0.0000  plane waves:   18792
 k-point 33 :   0.5000 0.0000 0.0000  plane waves:   18798
 k-point 34 :   0.5000 0.0000 0.0000  plane waves:   18798
 k-point 35 :   0.4889 0.0222 0.0000  plane waves:   18794
 k-point 36 :   0.4778 0.0444 0.0000  plane waves:   18780
 k-point 37 :   0.4667 0.0667 0.0000  plane waves:   18788
 k-point 38 :   0.4556 0.0889 0.0000  plane waves:   18769
 k-point 39 :   0.4444 0.1111 0.0000  plane waves:   18785
 k-point 40 :   0.4333 0.1333 0.0000  plane waves:   18801
 k-point 41 :   0.4222 0.1556 0.0000  plane waves:   18813
 k-point 42 :   0.4111 0.1778 0.0000  plane waves:   18831
 k-point 43 :   0.4000 0.2000 0.0000  plane waves:   18821
 k-point 44 :   0.3889 0.2222 0.0000  plane waves:   18831
 k-point 45 :   0.3778 0.2444 0.0000  plane waves:   18833
 k-point 46 :   0.3667 0.2667 0.0000  plane waves:   18821
 k-point 47 :   0.3556 0.2889 0.0000  plane waves:   18813
 k-point 48 :   0.3444 0.3111 0.0000  plane waves:   18823
 k-point 49 :   0.3333 0.3333 0.0000  plane waves:   18837
 k-point 50 :   0.3333 0.3333 0.0000  plane waves:   18837
 k-point 51 :   0.3229 0.3229 0.0000  plane waves:   18815
 k-point 52 :   0.3125 0.3125 0.0000  plane waves:   18817
 k-point 53 :   0.3021 0.3021 0.0000  plane waves:   18813
 k-point 54 :   0.2917 0.2917 0.0000  plane waves:   18813
 k-point 55 :   0.2812 0.2812 0.0000  plane waves:   18801
 k-point 56 :   0.2708 0.2708 0.0000  plane waves:   18797
 k-point 57 :   0.2604 0.2604 0.0000  plane waves:   18785
 k-point 58 :   0.2500 0.2500 0.0000  plane waves:   18811
 k-point 59 :   0.2396 0.2396 0.0000  plane waves:   18789
 k-point 60 :   0.2292 0.2292 0.0000  plane waves:   18791
 k-point 61 :   0.2187 0.2187 0.0000  plane waves:   18789
 k-point 62 :   0.2083 0.2083 0.0000  plane waves:   18793
 k-point 63 :   0.1979 0.1979 0.0000  plane waves:   18789
 k-point 64 :   0.1875 0.1875 0.0000  plane waves:   18771
 k-point 65 :   0.1771 0.1771 0.0000  plane waves:   18779
 k-point 66 :   0.1667 0.1667 0.0000  plane waves:   18771
 k-point 67 :   0.1562 0.1562 0.0000  plane waves:   18757
 k-point 68 :   0.1458 0.1458 0.0000  plane waves:   18737
 k-point 69 :   0.1354 0.1354 0.0000  plane waves:   18757
 k-point 70 :   0.1250 0.1250 0.0000  plane waves:   18749
 k-point 71 :   0.1146 0.1146 0.0000  plane waves:   18767
 k-point 72 :   0.1042 0.1042 0.0000  plane waves:   18759
 k-point 73 :   0.0937 0.0937 0.0000  plane waves:   18753
 k-point 74 :   0.0833 0.0833 0.0000  plane waves:   18767
 k-point 75 :   0.0729 0.0729 0.0000  plane waves:   18757
 k-point 76 :   0.0625 0.0625 0.0000  plane waves:   18771
 k-point 77 :   0.0521 0.0521 0.0000  plane waves:   18787
 k-point 78 :   0.0417 0.0417 0.0000  plane waves:   18771
 k-point 79 :   0.0312 0.0312 0.0000  plane waves:   18763
 k-point 80 :   0.0208 0.0208 0.0000  plane waves:   18779
 k-point 81 :   0.0104 0.0104 0.0000  plane waves:   18777
 k-point 82 :   0.0000 0.0000 0.0000  plane waves:   18757

 maximum and minimum number of plane-waves per node :       608      560

 maximum number of plane-waves:     18837
 maximum index in each direction: 
   IXMAX=   16   IYMAX=   16   IZMAX=   18
   IXMIN=  -17   IYMIN=  -17   IZMIN=  -18

 WARNING: aliasing errors must be expected set NGX to  68 to avoid them
 WARNING: aliasing errors must be expected set NGY to  68 to avoid them
 WARNING: aliasing errors must be expected set NGZ to  74 to avoid them
 aliasing errors are usually negligible using standard VASP settings
 and one can safely disregard these warnings

 real space projection operators:
  total allocation   :       6400.25 KBytes
  max/ min on nodes  :        316.75        102.56


 parallel 3D FFT for wavefunctions:
    minimum data exchange during FFTs selected (reduces bandwidth)
 parallel 3D FFT for charge:
    minimum data exchange during FFTs selected (reduces bandwidth)


 FFT grid for exact exchange (Hartree Fock) 
  NGX = 36; NGY = 36; NGZ = 40


 Radii for the augmentation spheres in the non-local exchange
 for species   1 augmentation radius   1.335 (default was   0.989)
       energy cutoff for augmentation   2000.0
 for species   2 augmentation radius   1.405 (default was   1.041)
       energy cutoff for augmentation   2000.0
 for species   3 augmentation radius   0.957 (default was   0.709)
       energy cutoff for augmentation   2000.0

 real space projection operators:
  total allocation   :       2758.43 KBytes
  max/ min on nodes  :        144.70         56.04

 Maximum index for augmentation-charges in exchange          158
  SETUP_FOCK is finished

 total amount of memory used by VASP on root node    62062. kBytes
========================================================================

   base      :      30000. kBytes
   nonlr-proj:       3736. kBytes
   fftplans  :        759. kBytes
   grid      :        991. kBytes
   one-center:          9. kBytes
   HF        :         13. kBytes
   wavefun   :      26554. kBytes

     INWAV:  cpu time   73.6381: real time   73.6426
 charge density for first step will be calculated from the start-wavefunctions


--------------------------------------------------------------------------------------------------------


 Maximum index for non-local projection operator          149
 Maximum index for augmentation-charges          115 (set IRDMAX)


--------------------------------------------------------------------------------------------------------


 initial charge from wavefunction
 First call to EWALD:  gamma=   0.196
 Maximum number of real-space cells 3x 3x 3
 Maximum number of reciprocal cells 3x 3x 3

 FEWALD executed in parallel
    FEWALD:  cpu time    0.0034: real time    0.0034


----------------------------------------- Iteration    1(   1)  ---------------------------------------


    POTLOK:  cpu time    0.1299: real time    0.1301
    SETDIJ:  cpu time    0.0495: real time    0.0495
     EDDAV:  cpu time 1061.0121: real time 1061.1199
       DOS:  cpu time    0.0096: real time    0.0096
    CHARGE:  cpu time    0.0441: real time    0.0441
    MIXING:  cpu time    0.0003: real time    0.0003
    --------------------------------------------
      LOOP:  cpu time 1061.2481: real time 1061.5639

 eigenvalue-minimisations  : 33008
 total energy-change (2. order) :-0.6467818E+03  (-0.1838856E-04)
 number of electron     290.0000034 magnetization 
 augmentation part        7.7976749 magnetization 

 Free energy of the ion-electron system (eV)
  ---------------------------------------------------
  alpha Z        PSCENC =       290.88492991
  Ewald energy   TEWEN  =    -10755.44130324
  -Hartree energ DENC   =     -2808.55598379
  -exchange      EXHF   =       862.83866613
  -V(xc)+E(xc)   XCENC  =      -126.16113274
  PAW double counting   =    151125.33612405  -150331.85124222
  entropy T*S    EENTRO =        -0.00192828
  eigenvalues    EBANDS =      -254.91285665
  atomic energy  EATOM  =     11351.08296830
  Solvation  Ediel_sol  =         0.00000000
  ---------------------------------------------------
  free energy    TOTEN  =      -646.78175853 eV

  energy without entropy =     -646.77983025  energy(sigma->0) =     -646.78079439
  exchange ACFDT corr.  =        -0.00655945  see jH, gK, PRB 81, 115126


--------------------------------------------------------------------------------------------------------




----------------------------------------- Iteration    1(   2)  ---------------------------------------


    POTLOK:  cpu time    0.0291: real time    0.0291
    SETDIJ:  cpu time    0.0479: real time    0.0479
     EDDAV:  cpu time 1091.1446: real time 1091.2058
       DOS:  cpu time    0.0088: real time    0.0088
    CHARGE:  cpu time    0.0419: real time    0.0419
    MIXING:  cpu time    0.0000: real time    0.0000
    --------------------------------------------
      LOOP:  cpu time 1091.2734: real time 1091.3666

 eigenvalue-minimisations  : 34216
 total energy-change (2. order) :-0.6216391E-06  (-0.3515492E-06)
 number of electron     290.0000034 magnetization 
 augmentation part        7.7976758 magnetization 

 Free energy of the ion-electron system (eV)
  ---------------------------------------------------
  alpha Z        PSCENC =       290.88492991
  Ewald energy   TEWEN  =    -10755.44130324
  -Hartree energ DENC   =     -2808.55737772
  -exchange      EXHF   =       862.83892063
  -V(xc)+E(xc)   XCENC  =      -126.16106045
  PAW double counting   =    151129.87508389  -150336.39022217
  entropy T*S    EENTRO =        -0.00192828
  eigenvalues    EBANDS =      -254.91177002
  atomic energy  EATOM  =     11351.08296830
  Solvation  Ediel_sol  =         0.00000000
  ---------------------------------------------------
  free energy    TOTEN  =      -646.78175915 eV

  energy without entropy =     -646.77983087  energy(sigma->0) =     -646.78079501
  exchange ACFDT corr.  =        -0.00655948  see jH, gK, PRB 81, 115126


--------------------------------------------------------------------------------------------------------




----------------------------------------- Iteration    1(   3)  ---------------------------------------


    POTLOK:  cpu time    0.0285: real time    0.0285
    SETDIJ:  cpu time    0.0472: real time    0.0472
     EDDAV:  cpu time 1101.5553: real time 1101.6169
       DOS:  cpu time    0.0163: real time    0.0163
    CHARGE:  cpu time    0.0435: real time    0.0435
    MIXING:  cpu time    0.0001: real time    0.0001
    --------------------------------------------
      LOOP:  cpu time 1101.6918: real time 1101.7850

 eigenvalue-minimisations  : 34736
 total energy-change (2. order) : 0.8447148E-07  (-0.2417465E-07)
 number of electron     290.0000034 magnetization 
 augmentation part        7.7976740 magnetization 

 Free energy of the ion-electron system (eV)
  ---------------------------------------------------
  alpha Z        PSCENC =       290.88492991
  Ewald energy   TEWEN  =    -10755.44130324
  -Hartree energ DENC   =     -2808.55800651
  -exchange      EXHF   =       862.83885558
  -V(xc)+E(xc)   XCENC  =      -126.16102838
  PAW double counting   =    151132.81974229  -150339.33489530
  entropy T*S    EENTRO =        -0.00192828
  eigenvalues    EBANDS =      -254.91109343
  atomic energy  EATOM  =     11351.08296830
  Solvation  Ediel_sol  =         0.00000000
  ---------------------------------------------------
  free energy    TOTEN  =      -646.78175907 eV

  energy without entropy =     -646.77983079  energy(sigma->0) =     -646.78079493
  exchange ACFDT corr.  =        -0.00655949  see jH, gK, PRB 81, 115126


--------------------------------------------------------------------------------------------------------




----------------------------------------- Iteration    1(   4)  ---------------------------------------


    POTLOK:  cpu time    0.0300: real time    0.0300
    SETDIJ:  cpu time    0.0472: real time    0.0472
     EDDAV:  cpu time 1198.7044: real time 1198.7716
       DOS:  cpu time    0.0155: real time    0.0155
    CHARGE:  cpu time    0.0443: real time    0.0443
    MIXING:  cpu time    0.0000: real time    0.0000
    --------------------------------------------
      LOOP:  cpu time 1198.8425: real time 1198.9452

 eigenvalue-minimisations  : 39032
 total energy-change (2. order) : 0.1269096E-06  (-0.7676079E-08)
 number of electron     290.0000034 magnetization 
 augmentation part        7.7976728 magnetization 

 Free energy of the ion-electron system (eV)
  ---------------------------------------------------
  alpha Z        PSCENC =       290.88492991
  Ewald energy   TEWEN  =    -10755.44130324
  -Hartree energ DENC   =     -2808.55801109
  -exchange      EXHF   =       862.83876030
  -V(xc)+E(xc)   XCENC  =      -126.16102723
  PAW double counting   =    151134.83721827  -150341.35238057
  entropy T*S    EENTRO =        -0.00192828
  eigenvalues    EBANDS =      -254.91098531
  atomic energy  EATOM  =     11351.08296830
  Solvation  Ediel_sol  =         0.00000000
  ---------------------------------------------------
  free energy    TOTEN  =      -646.78175894 eV

  energy without entropy =     -646.77983066  energy(sigma->0) =     -646.78079480
  exchange ACFDT corr.  =        -0.00655951  see jH, gK, PRB 81, 115126


--------------------------------------------------------------------------------------------------------




----------------------------------------- Iteration    1(   5)  ---------------------------------------


    POTLOK:  cpu time    0.0287: real time    0.0287
    SETDIJ:  cpu time    0.0470: real time    0.0470
     EDDAV:  cpu time 1069.1685: real time 1069.2278
       DOS:  cpu time    0.0167: real time    0.0167
    CHARGE:  cpu time    0.0433: real time    0.0433
    MIXING:  cpu time    0.0000: real time    0.0000
    --------------------------------------------
      LOOP:  cpu time 1069.3055: real time 1069.3962

 eigenvalue-minimisations  : 33080
 total energy-change (2. order) : 0.1232725E-06  (-0.2910284E-08)
 number of electron     290.0000034 magnetization 
 augmentation part        7.7976733 magnetization 

 Free energy of the ion-electron system (eV)
  ---------------------------------------------------
  alpha Z        PSCENC =       290.88492991
  Ewald energy   TEWEN  =    -10755.44130324
  -Hartree energ DENC   =     -2808.55782847
  -exchange      EXHF   =       862.83871840
  -V(xc)+E(xc)   XCENC  =      -126.16103532
  PAW double counting   =    151136.19615154  -150342.71131993
  entropy T*S    EENTRO =        -0.00192828
  eigenvalues    EBANDS =      -254.91111172
  atomic energy  EATOM  =     11351.08296830
  Solvation  Ediel_sol  =         0.00000000
  ---------------------------------------------------
  free energy    TOTEN  =      -646.78175882 eV

  energy without entropy =     -646.77983054  energy(sigma->0) =     -646.78079468
  exchange ACFDT corr.  =        -0.00655951  see jH, gK, PRB 81, 115126


--------------------------------------------------------------------------------------------------------




----------------------------------------- Iteration    1(   6)  ---------------------------------------


    POTLOK:  cpu time    0.0288: real time    0.0289
    SETDIJ:  cpu time    0.0447: real time    0.0447
     EDDAV:  cpu time  897.3005: real time  897.3514
       DOS:  cpu time    0.0193: real time    0.0193
    CHARGE:  cpu time    0.0432: real time    0.0432
    MIXING:  cpu time    0.0000: real time    0.0000
    --------------------------------------------
      LOOP:  cpu time  897.4377: real time  897.5207

 eigenvalue-minimisations  : 25360
 total energy-change (2. order) : 0.1066123E-06  (-0.1200244E-08)
 number of electron     290.0000034 magnetization 
 augmentation part        7.7976738 magnetization 

 Free energy of the ion-electron system (eV)
  ---------------------------------------------------
  alpha Z        PSCENC =       290.88492991
  Ewald energy   TEWEN  =    -10755.44130324
  -Hartree energ DENC   =     -2808.55771060
  -exchange      EXHF   =       862.83871912
  -V(xc)+E(xc)   XCENC  =      -126.16104036
  PAW double counting   =    151137.11376915  -150343.62894137
  entropy T*S    EENTRO =        -0.00192828
  eigenvalues    EBANDS =      -254.91122134
  atomic energy  EATOM  =     11351.08296830
  Solvation  Ediel_sol  =         0.00000000
  ---------------------------------------------------
  free energy    TOTEN  =      -646.78175871 eV

  energy without entropy =     -646.77983043  energy(sigma->0) =     -646.78079457
  exchange ACFDT corr.  =        -0.00655951  see jH, gK, PRB 81, 115126


--------------------------------------------------------------------------------------------------------




----------------------------------------- Iteration    1(   7)  ---------------------------------------


    POTLOK:  cpu time    0.0274: real time    0.0274
    SETDIJ:  cpu time    0.0458: real time    0.0458
     EDDAV:  cpu time  815.8421: real time  815.8869
       DOS:  cpu time    0.0084: real time    0.0084
    CHARGE:  cpu time    0.0403: real time    0.0403
    MIXING:  cpu time    0.0001: real time    0.0001
    --------------------------------------------
      LOOP:  cpu time  815.9650: real time  816.0419

 eigenvalue-minimisations  : 21824
 total energy-change (2. order) : 0.8537745E-07  (-0.5499934E-09)
 number of electron     290.0000034 magnetization 
 augmentation part        7.7976743 magnetization 

 Free energy of the ion-electron system (eV)
  ---------------------------------------------------
  alpha Z        PSCENC =       290.88492991
  Ewald energy   TEWEN  =    -10755.44130324
  -Hartree energ DENC   =     -2808.55766087
  -exchange      EXHF   =       862.83872626
  -V(xc)+E(xc)   XCENC  =      -126.16104224
  PAW double counting   =    151137.73464710  -150344.24982194
  entropy T*S    EENTRO =        -0.00192828
  eigenvalues    EBANDS =      -254.91127361
  atomic energy  EATOM  =     11351.08296830
  Solvation  Ediel_sol  =         0.00000000
  ---------------------------------------------------
  free energy    TOTEN  =      -646.78175863 eV

  energy without entropy =     -646.77983035  energy(sigma->0) =     -646.78079449
  exchange ACFDT corr.  =        -0.00655951  see jH, gK, PRB 81, 115126


--------------------------------------------------------------------------------------------------------




----------------------------------------- Iteration    1(   8)  ---------------------------------------


    POTLOK:  cpu time    0.0310: real time    0.0310
    SETDIJ:  cpu time    0.0510: real time    0.0510
     EDDAV:  cpu time  753.8901: real time  753.9322
       DOS:  cpu time    0.0177: real time    0.0177
    --------------------------------------------
      LOOP:  cpu time  753.9906: real time  754.0629

 eigenvalue-minimisations  : 18944
 total energy-change (2. order) : 0.6911216E-07  (-0.2516553E-09)
 number of electron     290.0000034 magnetization 
 augmentation part        7.7976743 magnetization 

 Free energy of the ion-electron system (eV)
  ---------------------------------------------------
  alpha Z        PSCENC =       290.88492991
  Ewald energy   TEWEN  =    -10755.44130324
  -Hartree energ DENC   =     -2808.55765030
  -exchange      EXHF   =       862.83873154
  -V(xc)+E(xc)   XCENC  =      -126.16104238
  PAW double counting   =    151138.16205682  -150344.67723346
  entropy T*S    EENTRO =        -0.00192828
  eigenvalues    EBANDS =      -254.91128747
  atomic energy  EATOM  =     11351.08296830
  Solvation  Ediel_sol  =         0.00000000
  ---------------------------------------------------
  free energy    TOTEN  =      -646.78175856 eV

  energy without entropy =     -646.77983028  energy(sigma->0) =     -646.78079442
  exchange ACFDT corr.  =        -0.00655950  see jH, gK, PRB 81, 115126


--------------------------------------------------------------------------------------------------------




 average (electrostatic) potential at core
  the test charge radii are     0.9892  1.0406  0.7089
  (the norm of the test charge is              1.0000)
       1 -77.1684       2 -66.3220       3 -66.1802       4 -66.3220       5 -66.1802
       6 -66.1538       7 -66.1167       8 -66.3220       9 -66.1802      10 -66.1607
      11 -66.3220      12 -66.1802      13 -66.1030      14 -66.1245      15 -66.3220
      16 -66.1802      17 -66.3220      18 -66.1802      19 -66.1482      20 -66.1357
      21 -66.3351      22 -66.3372      23 -66.1482      24 -66.1357      25 -66.1450
      26 -66.1515      27 -66.3351      28 -66.3371      29 -66.3351      30 -66.3371
      31 -66.1450      32 -66.1515      33 -66.1450      34 -66.1515      35 -66.1481
[...]
   -.664E+01 0.849E+00 0.422E+01   0.628E+01 -.223E+01 -.297E+01   0.348E+00 0.134E+01 -.123E+01   0.111E-04 0.198E-04 0.781E-05
   -.788E+00 -.314E+00 -.147E-01   0.736E+00 0.727E-01 0.487E+00   0.499E-01 0.239E+00 -.467E+00   0.676E-05 0.150E-04 -.164E-05
   -.186E-03 -.887E-05 0.223E+01   0.219E-03 -.557E-04 -.168E+01   0.599E-17 -.205E-17 -.527E+00   0.196E-04 0.159E-04 -.800E-06
   -.258E+01 -.617E+01 0.422E+01   0.121E+01 0.656E+01 -.297E+01   0.134E+01 -.370E+00 -.123E+01   0.249E-04 -.355E-05 0.580E-05
   -.666E+00 -.525E+00 -.147E-01   0.431E+00 0.601E+00 0.487E+00   0.232E+00 -.761E-01 -.467E+00   0.224E-04 -.272E-05 -.293E-06
   -.174E-03 0.398E-04 0.176E+01   0.196E-03 -.111E-03 -.116E+01   0.134E-17 -.584E-18 -.610E+00   0.181E-06 -.669E-06 0.182E-05
   -.185E-03 0.424E-04 0.819E+00   0.201E-03 -.113E-03 -.558E-01   0.706E-18 0.262E-17 -.743E+00   0.177E-05 -.695E-05 -.617E-05
   -.405E+01 0.532E+01 0.422E+01   0.507E+01 -.432E+01 -.297E+01   -.989E+00 -.973E+00 -.123E+01   -.111E-04 0.185E-04 0.159E-05
   -.122E+00 0.839E+00 -.147E-01   0.305E+00 -.674E+00 0.487E+00   -.182E+00 -.163E+00 -.467E+00   -.900E-05 0.124E-04 -.201E-05
   0.258E+01 -.617E+01 0.422E+01   -.121E+01 0.656E+01 -.297E+01   -.134E+01 -.370E+00 -.123E+01   0.958E-05 -.189E-04 0.517E-05
   0.666E+00 -.525E+00 -.147E-01   -.431E+00 0.601E+00 0.487E+00   -.232E+00 -.761E-01 -.467E+00   0.337E-06 -.930E-05 -.203E-05
   0.227E-03 0.170E+01 0.242E+01   -.211E-03 -.170E+01 -.182E+01   0.363E-09 -.144E-02 -.587E+00   -.119E-04 -.101E-04 -.665E-05
   0.225E-03 0.144E+01 -.874E+00   -.211E-03 -.144E+01 0.151E+01   0.247E-10 -.980E-04 -.631E+00   -.124E-04 -.941E-05 0.187E-05
   0.599E+01 0.346E+01 0.129E+01   -.583E+01 -.337E+01 -.214E+01   -.166E+00 -.961E-01 0.829E+00   0.115E-04 0.530E-05 -.286E-05
   -.111E+01 -.643E+00 -.508E+01   -.245E+00 -.141E+00 0.595E+01   0.133E+01 0.766E+00 -.850E+00   0.100E-04 0.615E-05 0.102E-05
   0.147E+01 -.850E+00 0.242E+01   -.147E+01 0.849E+00 -.182E+01   -.125E-02 0.722E-03 -.587E+00   -.804E-05 -.120E-06 -.644E-05
   0.125E+01 -.722E+00 -.874E+00   -.125E+01 0.722E+00 0.151E+01   -.849E-04 0.490E-04 -.631E+00   -.988E-05 -.388E-05 0.293E-05
   -.843E-01 -.489E-01 0.125E+01   0.300E+00 0.173E+00 -.554E+00   -.211E+00 -.122E+00 -.689E+00   0.137E-04 0.970E-06 -.667E-05
   0.106E+00 0.607E-01 0.414E+00   0.113E+00 0.655E-01 0.252E+00   -.218E+00 -.126E+00 -.653E+00   0.125E-04 0.234E-05 0.218E-05
   -.599E+01 0.346E+01 0.129E+01   0.583E+01 -.337E+01 -.214E+01   0.166E+00 -.961E-01 0.829E+00   0.141E-04 0.302E-04 -.202E-05
   0.111E+01 -.643E+00 -.508E+01   0.244E+00 -.141E+00 0.595E+01   -.133E+01 0.766E+00 -.850E+00   0.955E-05 0.275E-04 -.262E-05
   0.201E-03 -.692E+01 0.129E+01   -.197E-03 0.673E+01 -.214E+01   -.484E-07 0.192E+00 0.829E+00   0.300E-04 0.212E-05 -.440E-05
   0.218E-03 0.129E+01 -.508E+01   -.207E-03 0.282E+00 0.595E+01   0.385E-06 -.153E+01 -.850E+00   0.289E-04 -.496E-06 -.886E-06
   0.848E-01 -.489E-01 0.125E+01   -.300E+00 0.173E+00 -.554E+00   0.211E+00 -.122E+00 -.689E+00   -.179E-05 -.299E-04 -.218E-05
   -.105E+00 0.607E-01 0.414E+00   -.113E+00 0.654E-01 0.252E+00   0.218E+00 -.126E+00 -.653E+00   -.167E-06 -.283E-04 0.414E-05
   0.268E-03 0.975E-01 0.125E+01   -.240E-03 -.346E+00 -.554E+00   -.612E-07 0.243E+00 -.689E+00   -.253E-04 0.102E-04 0.275E-05
   0.261E-03 -.122E+00 0.414E+00   -.239E-03 -.131E+00 0.252E+00   -.633E-07 0.251E+00 -.653E+00   -.196E-04 0.112E-04 0.125E-05
   -.147E+01 -.850E+00 0.242E+01   0.147E+01 0.849E+00 -.182E+01   0.125E-02 0.722E-03 -.587E+00   -.219E-04 -.845E-05 0.487E-05
   -.125E+01 -.722E+00 -.874E+00   0.125E+01 0.722E+00 0.151E+01   0.849E-04 0.490E-04 -.631E+00   -.191E-04 -.546E-05 -.730E-05
   0.287E+01 0.212E+01 0.144E+01   -.297E+01 -.237E+01 -.131E+01   0.866E-01 0.220E+00 -.132E+00   -.140E-04 -.335E-04 -.877E-05
   0.354E+01 0.470E+01 -.354E+01   -.354E+01 -.500E+01 0.371E+01   -.289E-02 0.274E+00 -.154E+00   -.195E-04 -.312E-04 0.116E-04
   0.327E+01 0.143E+01 0.144E+01   -.354E+01 -.139E+01 -.131E+01   0.234E+00 -.352E-01 -.132E+00   -.278E-04 0.903E-05 -.504E-05
   0.584E+01 0.719E+00 -.354E+01   -.610E+01 -.562E+00 0.371E+01   0.235E+00 -.139E+00 -.154E+00   -.283E-04 0.725E-06 0.907E-05
   -.114E-03 -.555E-04 0.776E+00   0.246E-03 -.142E-03 -.686E+00   -.193E-17 -.116E-18 -.758E-01   -.553E-04 -.314E-04 -.591E-05
   -.111E-03 -.540E-04 -.108E+01   0.246E-03 -.142E-03 0.105E+01   -.460E-19 0.903E-18 0.173E-01   -.613E-04 -.325E-04 0.564E-05
   -.287E+01 0.212E+01 0.144E+01   0.297E+01 -.237E+01 -.131E+01   -.866E-01 0.220E+00 -.132E+00   0.201E-04 0.282E-04 -.192E-04
   -.354E+01 0.470E+01 -.354E+01   0.354E+01 -.500E+01 0.371E+01   0.289E-02 0.274E+00 -.154E+00   0.189E-04 0.320E-04 0.641E-05
   -.724E-04 0.609E-05 0.110E+02   0.231E-03 -.387E-04 -.109E+02   0.716E-18 0.117E-17 -.849E-01   0.468E-04 0.344E-04 -.360E-05
   -.520E-04 0.534E-05 -.401E+02   0.207E-03 -.285E-04 0.449E+02   -.762E-18 -.156E-19 -.430E+01   0.429E-04 0.337E-04 0.431E-06
   0.396E+00 -.355E+01 0.144E+01   -.566E+00 0.376E+01 -.131E+01   0.148E+00 -.185E+00 -.132E+00   0.430E-04 0.702E-06 -.195E-04
   0.230E+01 -.541E+01 -.354E+01   -.256E+01 0.557E+01 0.371E+01   0.238E+00 -.134E+00 -.154E+00   0.450E-04 -.381E-05 0.101E-04
   -.110E-03 0.112E-05 -.292E+00   0.205E-03 -.120E-03 0.436E+00   -.628E-18 0.171E-19 -.132E+00   -.531E-05 -.138E-04 -.306E-05
   -.115E-03 -.370E-05 0.145E+00   0.208E-03 -.123E-03 -.240E+00   -.614E-19 -.112E-17 0.692E-01   0.642E-06 -.590E-05 0.154E-05
   -.327E+01 0.143E+01 0.144E+01   0.354E+01 -.139E+01 -.131E+01   -.234E+00 -.352E-01 -.132E+00   -.183E-04 0.328E-04 0.155E-04
   -.584E+01 0.719E+00 -.354E+01   0.610E+01 -.562E+00 0.371E+01   -.235E+00 -.139E+00 -.154E+00   -.153E-04 0.332E-04 -.114E-04
   -.396E+00 -.355E+01 0.144E+01   0.566E+00 0.376E+01 -.131E+01   -.148E+00 -.185E+00 -.132E+00   0.118E-04 -.260E-04 0.423E-05
   -.230E+01 -.541E+01 -.354E+01   0.257E+01 0.557E+01 0.371E+01   -.238E+00 -.134E+00 -.154E+00   0.165E-04 -.263E-04 -.760E-05
   -.166E-03 0.609E+01 0.226E+01   -.220E-03 -.630E+01 -.224E+01   -.458E-07 0.182E+00 -.303E-01   -.299E-04 -.237E-04 0.820E-05
   -.156E-03 0.436E+00 -.151E+01   -.226E-03 -.527E+00 0.155E+01   -.209E-07 0.830E-01 -.433E-01   -.177E-04 -.149E-04 -.207E-05
   0.333E+02 0.192E+02 0.130E+02   -.369E+02 -.213E+02 -.143E+02   0.328E+01 0.190E+01 0.117E+01   0.196E-04 0.116E-04 0.135E-04
   0.812E+00 0.470E+00 -.113E+01   -.993E+00 -.573E+00 0.140E+01   0.159E+00 0.915E-01 -.258E+00   0.167E-04 0.720E-05 -.664E-05
   0.527E+01 -.304E+01 0.226E+01   -.545E+01 0.315E+01 -.224E+01   0.158E+00 -.911E-01 -.303E-01   -.245E-04 -.828E-05 0.559E-05
   0.376E+00 -.217E+00 -.151E+01   -.457E+00 0.264E+00 0.155E+01   0.719E-01 -.415E-01 -.433E-01   -.135E-04 -.611E-06 -.239E-05
   -.181E+01 -.104E+01 0.145E+01   0.206E+01 0.119E+01 -.126E+01   -.224E+00 -.129E+00 -.185E+00   0.376E-04 0.164E-04 0.701E-05
   -.278E+00 -.160E+00 -.168E+01   0.314E+00 0.181E+00 0.170E+01   -.314E-01 -.182E-01 -.274E-01   0.305E-04 0.338E-05 0.567E-05
   -.333E+02 0.192E+02 0.130E+02   0.369E+02 -.213E+02 -.143E+02   -.328E+01 0.190E+01 0.117E+01   0.435E-04 0.677E-04 0.268E-05
   -.813E+00 0.470E+00 -.113E+01   0.993E+00 -.573E+00 0.140E+01   -.159E+00 0.915E-01 -.258E+00   0.247E-04 0.345E-04 -.450E-06
   -.121E-03 -.384E+02 0.130E+02   -.121E-03 0.426E+02 -.143E+02   0.954E-06 -.379E+01 0.117E+01   0.697E-04 0.471E-05 0.597E-06
   -.933E-04 -.938E+00 -.113E+01   -.193E-03 0.115E+01 0.140E+01   0.461E-07 -.183E+00 -.258E+00   0.422E-04 0.184E-04 -.700E-07
   0.181E+01 -.104E+01 0.145E+01   -.206E+01 0.119E+01 -.126E+01   0.224E+00 -.129E+00 -.185E+00   -.832E-05 -.540E-04 0.448E-05
   0.278E+00 -.160E+00 -.168E+01   -.314E+00 0.181E+00 0.170E+01   0.314E-01 -.182E-01 -.274E-01   -.129E-04 -.519E-04 -.871E-05
   -.160E-03 0.209E+01 0.145E+01   -.272E-03 -.238E+01 -.126E+01   -.650E-07 0.258E+00 -.185E+00   -.566E-04 0.133E-04 0.525E-05
   -.191E-03 0.322E+00 -.168E+01   -.268E-03 -.363E+00 0.170E+01   -.914E-08 0.363E-01 -.274E-01   -.406E-04 0.106E-04 -.116E-04
   -.527E+01 -.304E+01 0.226E+01   0.545E+01 0.315E+01 -.224E+01   -.158E+00 -.911E-01 -.303E-01   -.450E-04 -.216E-04 0.340E-05
   -.377E+00 -.217E+00 -.151E+01   0.457E+00 0.264E+00 0.155E+01   -.719E-01 -.415E-01 -.433E-01   -.288E-04 -.663E-05 -.681E-05
 -----------------------------------------------------------------------------------------------
   -.391E-02 0.126E-01 0.259E+02   -.123E-13 0.102E-12 0.175E-12   0.513E-15 0.486E-15 -.255E+02   0.157E-04 0.131E-04 0.306E-05


 POSITION                                       TOTAL-FORCE (eV/Angst)
 -----------------------------------------------------------------------------------
      1.54786      4.46831      4.96227              NaN           NaN           NaN
      0.00549      1.78426      4.95787              NaN           NaN           NaN
      0.00153      1.78703      9.90491              NaN           NaN           NaN
     -1.54778      4.47460      4.95787              NaN           NaN           NaN
     -1.54736      4.46978      9.90491              NaN           NaN           NaN
     -3.09574      7.14929      4.95297              NaN           NaN           NaN
     -3.09574      7.14929      9.90878              NaN           NaN           NaN
      3.09024      1.78426      4.95787              NaN           NaN           NaN
      3.09420      1.78703      9.90491              NaN           NaN           NaN
      1.54786      4.46831      9.90112              NaN           NaN           NaN
     -0.00540      7.14607      4.95787              NaN           NaN           NaN
     -0.00102      7.14811      9.90491              NaN           NaN           NaN
      6.19147      1.78732      4.96230              NaN           NaN           NaN
      6.19147      1.78732      9.90138              NaN           NaN           NaN
      4.64350      4.47460      4.95787              NaN           NaN           NaN
      4.64309      4.46978      9.90491              NaN           NaN           NaN
      3.10113      7.14607      4.95787              NaN           NaN           NaN
      3.09675      7.14811      9.90491              NaN           NaN           NaN
      1.54787      0.89325      2.47452              NaN           NaN           NaN
      1.54787      0.89149      7.43461              NaN           NaN           NaN
      0.00822      3.57939      2.46477              NaN           NaN           NaN
     -0.01137      3.56808      7.42270              NaN           NaN           NaN
     -1.54822      6.25584      2.47452              NaN           NaN           NaN
     -1.54975      6.25672      7.43461              NaN           NaN           NaN
      4.64863      0.89657      2.47320              NaN           NaN           NaN
      4.64416      0.89398      7.42956              NaN           NaN           NaN
      3.08752      3.57939      2.46477              NaN           NaN           NaN
      3.10710      3.56808      7.42270              NaN           NaN           NaN
      1.54787      6.24614      2.46477              NaN           NaN           NaN
      1.54787      6.26875      7.42270              NaN           NaN           NaN
      7.73430      0.89657      2.47320              NaN           NaN           NaN
      7.73878      0.89398      7.42956              NaN           NaN           NaN
      6.19147      3.56883      2.47320              NaN           NaN           NaN
      6.19147      3.57400      7.42956              NaN           NaN           NaN
      4.64396      6.25584      2.47452              NaN           NaN           NaN
      4.64548      6.25672      7.43461              NaN           NaN           NaN
      0.00138      1.79301      1.89062              NaN           NaN           NaN
      0.00292      1.78831      6.84102              NaN           NaN           NaN
     -1.54225      4.46666      1.89062              NaN           NaN           NaN
     -1.54556      4.47035      6.84102              NaN           NaN           NaN
     -3.09574      7.14929      1.88853              NaN           NaN           NaN
     -3.09574      7.14929      6.84220              NaN           NaN           NaN
      3.09435      1.79301      1.89062              NaN           NaN           NaN
      3.09281      1.78831      6.84102              NaN           NaN           NaN
      1.54786      4.46831      1.87218              NaN           NaN           NaN
      1.54786      4.46831      6.73554              NaN           NaN           NaN
      0.00423      7.14525      1.89062              NaN           NaN           NaN
     -0.00061      7.14627      6.84102              NaN           NaN           NaN
      6.19147      1.78732      1.87827              NaN           NaN           NaN
      6.19147      1.78732      6.85036              NaN           NaN           NaN
      4.63798      4.46666      1.89062              NaN           NaN           NaN
      4.64128      4.47035      6.84102              NaN           NaN           NaN
      3.09150      7.14525      1.89062              NaN           NaN           NaN
      3.09634      7.14627      6.84102              NaN           NaN           NaN
      1.54787      0.89624      4.36233              NaN           NaN           NaN
      1.54787      0.89173      9.32220              NaN           NaN           NaN
      0.09282      3.62823      4.39105              NaN           NaN           NaN
      0.00553      3.57784      9.30608              NaN           NaN           NaN
     -1.54563      6.25434      4.36233              NaN           NaN           NaN
     -1.54954      6.25660      9.32220              NaN           NaN           NaN
      4.64432      0.89407      4.36033              NaN           NaN           NaN
      4.64144      0.89241      9.31935              NaN           NaN           NaN
      3.00292      3.62823      4.39105              NaN           NaN           NaN
      3.09021      3.57784      9.30608              NaN           NaN           NaN
      1.54787      6.14846      4.39105              NaN           NaN           NaN
      1.54787      6.24925      9.30608              NaN           NaN           NaN
      7.73862      0.89407      4.36033              NaN           NaN           NaN
      7.74150      0.89241      9.31935              NaN           NaN           NaN
      6.19147      3.57382      4.36033              NaN           NaN           NaN
      6.19147      3.57714      9.31935              NaN           NaN           NaN
      4.64137      6.25434      4.36233              NaN           NaN           NaN
      4.64527      6.25660      9.32220              NaN           NaN           NaN
 -----------------------------------------------------------------------------------
    total drift:                                     NaN           NaN           NaN


--------------------------------------------------------------------------------------------------------



  FREE ENERGIE OF THE ION-ELECTRON SYSTEM (eV)
  ---------------------------------------------------
  free  energy   TOTEN  =      -646.78175856 eV

  energy  without entropy=     -646.77983028  energy(sigma->0) =     -646.78079442



--------------------------------------------------------------------------------------------------------


    POTLOK:  cpu time    0.0868: real time    0.0870


--------------------------------------------------------------------------------------------------------


     LOOP+:  cpu time 8580.7221: real time 8581.6872
    4ORBIT:  cpu time    0.0000: real time    0.0000



 total charge     

# of ion     s       p       d       tot
----------------------------------------
  1        0.697   0.954   0.000   1.651
  2        0.446   0.461   0.000   0.908
  3        0.450   0.469   0.000   0.918
  4        0.446   0.461   0.000   0.908
  5        0.450   0.469   0.000   0.918
  6        0.447   0.469   0.000   0.916
  7        0.451   0.472   0.000   0.923
  8        0.447   0.464   0.000   0.911
  9        0.449   0.469   0.000   0.919
 10        0.452   0.477   0.000   0.929
 11        0.447   0.464   0.000   0.911
 12        0.449   0.469   0.000   0.919
 13        0.446   0.469   0.000   0.915
 14        0.449   0.471   0.000   0.921
 15        0.446   0.462   0.000   0.908
 16        0.449   0.469   0.000   0.918
 17        0.446   0.462   0.000   0.908
 18        0.449   0.469   0.000   0.918
 19        0.450   0.471   0.000   0.921
 20        0.450   0.472   0.000   0.921
 21        0.449   0.467   0.000   0.916
 22        0.448   0.468   0.000   0.917
 23        0.450   0.471   0.000   0.921
 24        0.450   0.472   0.000   0.921
 25        0.449   0.469   0.000   0.919
 26        0.449   0.470   0.000   0.919
 27        0.448   0.467   0.000   0.915
 28        0.449   0.467   0.000   0.916
 29        0.448   0.467   0.000   0.915
 30        0.449   0.467   0.000   0.916
 31        0.449   0.469   0.000   0.918
 32        0.448   0.470   0.000   0.919
 33        0.449   0.469   0.000   0.918
 34        0.448   0.470   0.000   0.919
 35        0.450   0.471   0.000   0.921
 36        0.450   0.471   0.000   0.921
 37        1.230   2.659   0.000   3.889
 38        1.229   2.664   0.000   3.893
 39        1.230   2.659   0.000   3.889
 40        1.229   2.664   0.000   3.893
 41        1.229   2.663   0.000   3.893
 42        1.228   2.663   0.000   3.891
 43        1.230   2.659   0.000   3.889
 44        1.229   2.664   0.000   3.893
 45        1.230   2.673   0.000   3.903
 46        1.229   2.659   0.000   3.888
 47        1.230   2.659   0.000   3.889
 48        1.229   2.664   0.000   3.893
 49        1.230   2.666   0.000   3.896
 50        1.230   2.664   0.000   3.894
 51        1.230   2.659   0.000   3.889
 52        1.229   2.665   0.000   3.894
 53        1.230   2.659   0.000   3.889
 54        1.229   2.665   0.000   3.894
 55        1.229   2.663   0.000   3.893
 56        1.229   2.665   0.000   3.894
 57        1.234   2.648   0.000   3.882
 58        1.228   2.661   0.000   3.889
 59        1.229   2.663   0.000   3.893
 60        1.229   2.665   0.000   3.894
 61        1.238   2.648   0.000   3.886
 62        1.228   2.663   0.000   3.891
 63        1.236   2.648   0.000   3.885
 64        1.228   2.660   0.000   3.889
 65        1.236   2.648   0.000   3.885
 66        1.228   2.660   0.000   3.889
 67        1.234   2.647   0.000   3.882
 68        1.228   2.663   0.000   3.892
 69        1.234   2.647   0.000   3.882
 70        1.228   2.663   0.000   3.892
 71        1.230   2.663   0.000   3.893
 72        1.229   2.665   0.000   3.894
------------------------------------------------
tot       60.691 113.122   0.000 173.813


 total amount of memory used by VASP on root node    71503. kBytes
========================================================================

   base      :      30000. kBytes
   nonlr-proj:      13177. kBytes
   fftplans  :        759. kBytes
   grid      :        991. kBytes
   one-center:          9. kBytes
   HF        :         13. kBytes
   wavefun   :      26554. kBytes

  
  
 General timing and accounting informations for this job:
 ========================================================
  
                  Total CPU time used (sec):     8681.509
                            User time (sec):     8672.046
                          System time (sec):        9.463
                         Elapsed time (sec):     8688.795
  
                   Maximum memory used (kb):      468920.
                   Average memory used (kb):           0.
  
                          Minor page faults:        29363
                          Major page faults:          345
                 Voluntary context switches:          839
