<?xml version="1.0" encoding="ISO-8859-1"?>
<modeling>
 <generator>
  <i name="program" type="string">vasp </i>
  <i name="version" type="string">5.4.4.18Apr17-6-g9f103f2a35  </i>
  <i name="subversion" type="string">(build Jul  5 2023 12:04:10) complex            parallel </i>
  <i name="platform" type="string">NVIDIA22.5_CrayMPICH8.1.17 </i>
  <i name="date" type="string">2024 07 10 </i>
  <i name="time" type="string">06:50:44 </i>
 </generator>
 <incar>
  <i type="string" name="SYSTEM"> Si-doped AlN 2x2x3 supercell</i>
  <i type="string" name="PREC">normal</i>
  <i type="string" name="ALGO"> All</i>
  <i type="int" name="IBRION">     3</i>
  <i name="EDIFF">      0.00000100</i>
  <i name="EDIFFG">     -0.08000000</i>
  <i type="int" name="NSW">   500</i>
  <i type="int" name="ISIF">     2</i>
  <i name="ENCUT">    400.00000000</i>
  <i name="POTIM">      0.00000000</i>
  <i name="NELECT">    290.00000000</i>
  <i type="int" name="ISMEAR">     0</i>
  <i name="SIGMA">      0.02000000</i>
  <v type="int" name="KPOINT_BSE">    -1     0     0     0</v>
  <i type="logical" name="LHFCALC"> T  </i>
  <i name="HFSCREEN">      0.20000000</i>
  <i name="AEXX">      0.33000000</i>
  <i type="string" name="PRECFOCK">fast</i>
 </incar>
 <structure name="primitive_cell" >
  <crystal>
   <varray name="basis" >
    <v>       9.28720188       0.00000000       0.00000000 </v>
    <v>      -4.64360297       8.04295379       0.00000000 </v>
    <v>       0.00000000       0.00000000       9.90906906 </v>
   </varray>
   <i name="volume">    740.17312987 </i>
   <varray name="rec_basis" >
    <v>       0.10767506       0.06216624      -0.00000000 </v>
    <v>       0.00000000       0.12433243       0.00000000 </v>
    <v>       0.00000000      -0.00000000       0.10091765 </v>
   </varray>
  </crystal>
  <varray name="positions" >
   <v>       0.11446994       0.22454692      -0.00268211 </v>
   <v>       0.22528160       0.11372292      -0.06173026 </v>
   <v>       0.22479281       0.44605443      -0.06242214 </v>
   <v>      -0.10725036       0.11416365      -0.06248546 </v>
   <v>       0.11433756       0.22484038       0.18701504 </v>
   <v>       0.22618592       0.44627480       0.24626374 </v>
   <v>      -0.10725898       0.11295431       0.24628377 </v>
   <v>       0.22421227       0.11483115       0.24843110 </v>
   <v>       0.22652361       0.11295342      -0.25211264 </v>
   <v>      -0.10888727       0.11381783      -0.25251979 </v>
   <v>       0.22565349       0.44852320      -0.25251010 </v>
   <v>       0.11436400      -0.10825413      -0.00132569 </v>
   <v>       0.44742513       0.22476126      -0.00136059 </v>
   <v>      -0.21915052      -0.10868206      -0.00274585 </v>
   <v>       0.44796383      -0.44166257      -0.00273198 </v>
   <v>      -0.21933306       0.22471887      -0.00217970 </v>
   <v>       0.11429025      -0.44165031      -0.00212391 </v>
   <v>       0.11486305       0.22469101      -0.31949566 </v>
   <v>      -0.44157147       0.44652837      -0.06124893 </v>
   <v>      -0.10767838      -0.21948256      -0.06123751 </v>
   <v>      -0.10820823       0.44700289      -0.06049815 </v>
   <v>      -0.21909912      -0.10875337       0.18782710 </v>
   <v>       0.11484266      -0.44233804       0.18913085 </v>
   <v>       0.44825325      -0.44153342       0.18773039 </v>
   <v>      -0.21857641       0.22432146       0.18914613 </v>
   <v>       0.11479270      -0.10758485       0.19022840 </v>
   <v>       0.44691811       0.22456183       0.19016691 </v>
   <v>      -0.10751765      -0.21924969      -0.25163893 </v>
   <v>      -0.44118479       0.44706390      -0.25167132 </v>
   <v>      -0.10767304       0.44728387      -0.25105178 </v>
   <v>      -0.21951302       0.22486247      -0.30953455 </v>
   <v>       0.11475762      -0.44076871      -0.30947724 </v>
   <v>       0.11456101      -0.10798251      -0.31140597 </v>
   <v>      -0.21852237      -0.10777337      -0.31161207 </v>
   <v>       0.44759970       0.22502524      -0.31143183 </v>
   <v>      -0.10825162      -0.21964034       0.24813886 </v>
   <v>       0.44727072      -0.44195463      -0.31160315 </v>
   <v>      -0.44121792       0.44734883       0.24814429 </v>
   <v>      -0.10838665       0.44733592       0.24733274 </v>
   <v>      -0.09714112       0.11693770       0.43930564 </v>
   <v>       0.22211899       0.43619346       0.43934858 </v>
   <v>       0.21697338       0.12228719       0.44314870 </v>
   <v>      -0.44189067       0.11366302      -0.06045625 </v>
   <v>       0.22520854      -0.21926569      -0.06042462 </v>
   <v>      -0.44157938      -0.21951868      -0.06175600 </v>
   <v>       0.11010627       0.22910726      -0.49851227 </v>
   <v>       0.22577042      -0.21878611      -0.25133869 </v>
   <v>      -0.44157879       0.11374090      -0.25134893 </v>
   <v>      -0.44132514      -0.21912668      -0.25219671 </v>
   <v>      -0.44143941      -0.21958004       0.24783112 </v>
   <v>       0.22564565      -0.21997069       0.24867126 </v>
   <v>      -0.44117461       0.11334306       0.24866836 </v>
   <v>       0.44750932      -0.10840749      -0.00167760 </v>
   <v>      -0.21919848      -0.44156031      -0.00198041 </v>
   <v>      -0.10905657       0.44798305       0.43689034 </v>
   <v>      -0.10805240      -0.21976148       0.43896537 </v>
   <v>      -0.44099634       0.44725260       0.43893727 </v>
   <v>      -0.21927533      -0.44134973       0.18824258 </v>
   <v>       0.44780462      -0.10852426       0.18886978 </v>
   <v>      -0.21289778       0.22874685      -0.49958838 </v>
   <v>       0.11042675      -0.44782324      -0.49960878 </v>
   <v>       0.11281066      -0.10878385       0.49856762 </v>
   <v>       0.44802492       0.22643912       0.49852233 </v>
   <v>      -0.21853677      -0.10925778       0.49789645 </v>
   <v>       0.44847034      -0.44226551       0.49782192 </v>
   <v>       0.44764973      -0.10809394      -0.31056397 </v>
   <v>      -0.21880420      -0.44161181      -0.31088986 </v>
   <v>      -0.43991817       0.11453187       0.43952829 </v>
   <v>      -0.44118129      -0.21956181       0.43878520 </v>
   <v>       0.22461137      -0.22095558       0.43948673 </v>
   <v>       0.44774049      -0.10856200       0.49882403 </v>
   <v>      -0.21886254      -0.44187034       0.49811131 </v>
  </varray>
 </structure>
 <varray name="primitive_index" >
  <v type="int" >        1 </v>
  <v type="int" >       56 </v>
  <v type="int" >       58 </v>
  <v type="int" >       68 </v>
  <v type="int" >       37 </v>
  <v type="int" >       20 </v>
  <v type="int" >       30 </v>
  <v type="int" >       18 </v>
  <v type="int" >       19 </v>
  <v type="int" >       31 </v>
  <v type="int" >       21 </v>
  <v type="int" >        5 </v>
  <v type="int" >        7 </v>
  <v type="int" >       17 </v>
  <v type="int" >        9 </v>
  <v type="int" >       13 </v>
  <v type="int" >        3 </v>
  <v type="int" >       38 </v>
  <v type="int" >       64 </v>
  <v type="int" >       72 </v>
  <v type="int" >       70 </v>
  <v type="int" >       53 </v>
  <v type="int" >       39 </v>
  <v type="int" >       45 </v>
  <v type="int" >       49 </v>
  <v type="int" >       41 </v>
  <v type="int" >       43 </v>
  <v type="int" >       35 </v>
  <v type="int" >       27 </v>
  <v type="int" >       33 </v>
  <v type="int" >       50 </v>
  <v type="int" >       40 </v>
  <v type="int" >       42 </v>
  <v type="int" >       54 </v>
  <v type="int" >       44 </v>
  <v type="int" >       34 </v>
  <v type="int" >       46 </v>
  <v type="int" >       26 </v>
  <v type="int" >       32 </v>
  <v type="int" >       67 </v>
  <v type="int" >       57 </v>
  <v type="int" >       55 </v>
  <v type="int" >       62 </v>
  <v type="int" >       60 </v>
  <v type="int" >       66 </v>
  <v type="int" >       36 </v>
  <v type="int" >       23 </v>
  <v type="int" >       25 </v>
  <v type="int" >       29 </v>
  <v type="int" >       28 </v>
  <v type="int" >       22 </v>
  <v type="int" >       24 </v>
  <v type="int" >       11 </v>
  <v type="int" >       15 </v>
  <v type="int" >       69 </v>
  <v type="int" >       71 </v>
  <v type="int" >       63 </v>
  <v type="int" >       51 </v>
  <v type="int" >       47 </v>
  <v type="int" >       12 </v>
  <v type="int" >        2 </v>
  <v type="int" >        4 </v>
  <v type="int" >        6 </v>
  <v type="int" >       16 </v>
  <v type="int" >        8 </v>
  <v type="int" >       48 </v>
  <v type="int" >       52 </v>
  <v type="int" >       61 </v>
  <v type="int" >       65 </v>
  <v type="int" >       59 </v>
  <v type="int" >       10 </v>
  <v type="int" >       14 </v>
 </varray>
 <kpoints>
  <generation param="Gamma">
   <v type="int" name="divisions">       2        2        2 </v>
   <v name="usershift">      0.00000000       0.00000000       0.00000000 </v>
   <v name="genvec1">      0.50000000      -0.00000000       0.00000000 </v>
   <v name="genvec2">      0.00000000       0.50000000       0.00000000 </v>
   <v name="genvec3">      0.00000000       0.00000000       0.50000000 </v>
   <v name="shift">      0.00000000       0.00000000       0.00000000 </v>
  </generation>
  <varray name="kpointlist" >
   <v>       0.00000000       0.00000000       0.00000000 </v>
   <v>       0.50000000       0.00000000       0.00000000 </v>
   <v>       0.00000000       0.50000000       0.00000000 </v>
   <v>       0.50000000       0.50000000       0.00000000 </v>
   <v>       0.00000000       0.00000000       0.50000000 </v>
   <v>       0.50000000       0.00000000       0.50000000 </v>
   <v>       0.00000000       0.50000000       0.50000000 </v>
   <v>       0.50000000       0.50000000       0.50000000 </v>
  </varray>
  <varray name="weights" >
   <v>       0.12500000 </v>
   <v>       0.12500000 </v>
   <v>       0.12500000 </v>
   <v>       0.12500000 </v>
   <v>       0.12500000 </v>
   <v>       0.12500000 </v>
   <v>       0.12500000 </v>
   <v>       0.12500000 </v>
  </varray>
 </kpoints>
 <parameters>
  <separator name="general" >
   <i type="string" name="SYSTEM">Si-doped AlN 2x2x3 supercell</i>
   <i type="logical" name="LCOMPAT"> F  </i>
  </separator>
  <separator name="electronic" >
   <i type="string" name="PREC">normal</i>
   <i name="ENMAX">    400.00000000</i>
   <i name="ENAUG">    627.11200000</i>
   <i name="EDIFF">      0.00000100</i>
   <i type="int" name="IALGO">    58</i>
   <i type="int" name="IWAVPR">    11</i>
   <i type="int" name="NBANDS">   184</i>
   <i name="NELECT">    290.00000000</i>
   <i type="int" name="TURBO">     0</i>
   <i type="int" name="IRESTART">     0</i>
   <i type="int" name="NREBOOT">     0</i>
   <i type="int" name="NMIN">     0</i>
   <i name="EREF">      0.00000000</i>
   <separator name="electronic smearing" >
    <i type="int" name="ISMEAR">     0</i>
    <i name="SIGMA">      0.02000000</i>
    <i name="KSPACING">      0.50000000</i>
    <i type="logical" name="KGAMMA"> T  </i>
   </separator>
   <separator name="electronic projectors" >
    <i type="logical" name="LREAL"> F  </i>
    <v name="ROPT">      0.00000000      0.00000000      0.00000000</v>
    <i type="int" name="LMAXPAW">  -100</i>
    <i type="int" name="LMAXMIX">     2</i>
    <i type="logical" name="NLSPLINE"> F  </i>
   </separator>
   <separator name="electronic startup" >
    <i type="int" name="ISTART">     0</i>
    <i type="int" name="ICHARG">     2</i>
    <i type="int" name="INIWAV">     1</i>
   </separator>
   <separator name="electronic spin" >
    <i type="int" name="ISPIN">     1</i>
    <i type="logical" name="LNONCOLLINEAR"> F  </i>
    <v name="MAGMOM">      1.00000000      1.00000000      1.00000000      1.00000000      1.00000000      1.00000000      1.00000000      1.00000000      1.00000000      1.00000000      1.00000000      1.00000000      1.00000000      1.00000000      1.00000000      1.00000000      1.00000000      1.00000000      1.00000000      1.00000000
      1.00000000      1.00000000      1.00000000      1.00000000      1.00000000      1.00000000      1.00000000      1.00000000      1.00000000      1.00000000      1.00000000      1.00000000      1.00000000      1.00000000      1.00000000      1.00000000      1.00000000      1.00000000      1.00000000      1.00000000
      1.00000000      1.00000000      1.00000000      1.00000000      1.00000000      1.00000000      1.00000000      1.00000000      1.00000000      1.00000000      1.00000000      1.00000000      1.00000000      1.00000000      1.00000000      1.00000000      1.00000000      1.00000000      1.00000000      1.00000000
      1.00000000      1.00000000      1.00000000      1.00000000      1.00000000      1.00000000      1.00000000      1.00000000      1.00000000      1.00000000      1.00000000      1.00000000</v>
    <i name="NUPDOWN">     -1.00000000</i>
    <i type="logical" name="LSORBIT"> F  </i>
    <v name="SAXIS">      0.00000000      0.00000000      1.00000000</v>
    <i type="logical" name="LSPIRAL"> F  </i>
    <v name="QSPIRAL">      0.00000000      0.00000000      0.00000000</v>
    <i type="logical" name="LZEROZ"> F  </i>
   </separator>
   <separator name="electronic exchange-correlation" >
    <i type="logical" name="LASPH"> F  </i>
    <i type="logical" name="LMETAGGA"> F  </i>
   </separator>
   <separator name="electronic convergence" >
    <i type="int" name="NELM">    60</i>
    <i type="int" name="NELMDL">    -5</i>
    <i type="int" name="NELMIN">     2</i>
    <i name="ENINI">    400.00000000</i>
    <separator name="electronic convergence detail" >
     <i type="logical" name="LDIAG"> T  </i>
     <i type="logical" name="LSUBROT"> F  </i>
     <i name="WEIMIN">      0.00100000</i>
     <i name="EBREAK">      0.00000000</i>
     <i name="DEPER">      0.30000000</i>
     <i type="int" name="NRMM">     4</i>
     <i name="TIME">      0.40000000</i>
    </separator>
   </separator>
   <separator name="electronic mixer" >
    <i name="AMIX">      0.40000000</i>
    <i name="BMIX">      1.00000000</i>
    <i name="AMIN">      0.10000000</i>
    <i name="AMIX_MAG">      1.60000000</i>
    <i name="BMIX_MAG">      1.00000000</i>
    <separator name="electronic mixer details" >
     <i type="int" name="IMIX">     4</i>
     <i type="logical" name="MIXFIRST"> F  </i>
     <i type="int" name="MAXMIX">   -45</i>
     <i name="WC">    100.00000000</i>
     <i type="int" name="INIMIX">     1</i>
     <i type="int" name="MIXPRE">     1</i>
     <i type="int" name="MREMOVE">     5</i>
    </separator>
   </separator>
   <separator name="electronic dipolcorrection" >
    <i type="logical" name="LDIPOL"> F  </i>
    <i type="logical" name="LMONO"> F  </i>
    <i type="int" name="IDIPOL">     0</i>
    <i name="EPSILON">      1.00000000</i>
    <v name="DIPOL">   -100.00000000   -100.00000000   -100.00000000</v>
    <i name="EFIELD">      0.00000000</i>
   </separator>
  </separator>
  <separator name="grids" >
   <i type="int" name="NGX">    48</i>
   <i type="int" name="NGY">    48</i>
   <i type="int" name="NGZ">    48</i>
   <i type="int" name="NGXF">    96</i>
   <i type="int" name="NGYF">    96</i>
   <i type="int" name="NGZF">    96</i>
   <i type="logical" name="ADDGRID"> F  </i>
  </separator>
  <separator name="ionic" >
   <i type="int" name="NSW">   500</i>
   <i type="int" name="IBRION">     3</i>
   <i type="int" name="MDALGO">     0</i>
   <i type="int" name="ISIF">     2</i>
   <i name="PSTRESS">      0.00000000</i>
   <i name="EDIFFG">     -0.08000000</i>
   <i type="int" name="NFREE">     0</i>
   <i name="POTIM">      0.00000000</i>
   <i name="SMASS">     -3.00000000</i>
   <i name="SCALEE">      1.00000000</i>
  </separator>
  <separator name="ionic md" >
   <i name="TEBEG">      0.00010000</i>
   <i name="TEEND">      0.00010000</i>
   <i type="int" name="NBLOCK">     1</i>
   <i type="int" name="KBLOCK">   500</i>
   <i type="int" name="NPACO">   256</i>
   <i name="APACO">     16.00000000</i>
  </separator>
  <separator name="symmetry" >
   <i type="int" name="ISYM">     3</i>
   <i name="SYMPREC">      0.00001000</i>
  </separator>
  <separator name="dos" >
   <i type="int" name="LORBIT">     0</i>
   <v name="RWIGS">     -1.00000000     -1.00000000     -1.00000000</v>
   <i type="int" name="NEDOS">   301</i>
   <i name="EMIN">     10.00000000</i>
   <i name="EMAX">    -10.00000000</i>
   <i name="EFERMI">      0.00000000</i>
  </separator>
  <separator name="writing" >
   <i type="int" name="NWRITE">     2</i>
   <i type="logical" name="LWAVE"> T  </i>
   <i type="logical" name="LDOWNSAMPLE"> F  </i>
   <i type="logical" name="LCHARG"> T  </i>
   <i type="logical" name="LPARD"> F  </i>
   <i type="logical" name="LVTOT"> F  </i>
   <i type="logical" name="LVHAR"> F  </i>
   <i type="logical" name="LELF"> F  </i>
   <i type="logical" name="LOPTICS"> F  </i>
   <v name="STM">      0.00000000      0.00000000      0.00000000      0.00000000      0.00000000      0.00000000      0.00000000</v>
  </separator>
  <separator name="performance" >
   <i type="int" name="NPAR">     4</i>
   <i type="int" name="NSIM">     4</i>
   <i type="int" name="NBLK">    -1</i>
   <i type="logical" name="LPLANE"> T  </i>
   <i type="logical" name="LSCALAPACK"> T  </i>
   <i type="logical" name="LSCAAWARE"> F  </i>
   <i type="logical" name="LSCALU"> F  </i>
   <i type="logical" name="LASYNC"> F  </i>
   <i type="logical" name="LORBITALREAL"> F  </i>
  </separator>
  <separator name="miscellaneous" >
   <i type="int" name="IDIOT">     3</i>
   <i type="int" name="ISPECIAL">     0</i>
   <i type="logical" name="LMUSIC"> F  </i>
   <v name="POMASS">     26.98100000     28.08500000     14.00100000</v>
   <v name="DARWINR">      0.00000000      0.00000000      0.00000000</v>
   <v name="DARWINV">      1.00000000      1.00000000      1.00000000</v>
   <i type="logical" name="LCORR"> T  </i>
  </separator>
  <i type="logical" name="GGA_COMPAT"> T  </i>
  <i type="logical" name="LBERRY"> F  </i>
  <i type="int" name="ICORELEVEL">     0</i>
  <i type="logical" name="LDAU"> F  </i>
  <i type="int" name="I_CONSTRAINED_M">     0</i>
  <separator name="electronic exchange-correlation" >
   <i type="string" name="GGA">--</i>
   <i type="int" name="VOSKOWN">     0</i>
   <i type="logical" name="LHFCALC"> T  </i>
   <i type="string" name="PRECFOCK">fast</i>
   <i type="logical" name="LSYMGRAD"> F  </i>
   <i type="logical" name="LHFONE"> F  </i>
   <i type="logical" name="LRHFCALC"> F  </i>
   <i type="logical" name="LTHOMAS"> F  </i>
   <i type="logical" name="LMODELHF"> F  </i>
   <i name="ENCUT4O">     -1.00000000</i>
   <i type="int" name="EXXOEP">     0</i>
   <i type="int" name="FOURORBIT">     0</i>
   <i name="AEXX">      0.33000000</i>
   <i name="HFALPHA">     -1.00000000</i>
   <i name="MCALPHA">      0.00000000</i>
   <i name="ALDAX">      0.67000000</i>
   <i name="AGGAX">      0.67000000</i>
   <i name="ALDAC">      1.00000000</i>
   <i name="AGGAC">      1.00000000</i>
   <i type="int" name="NKREDX">     1</i>
   <i type="int" name="NKREDY">     1</i>
   <i type="int" name="NKREDZ">     1</i>
   <i type="logical" name="SHIFTRED"> F  </i>
   <i type="logical" name="ODDONLY"> F  </i>
   <i type="logical" name="EVENONLY"> F  </i>
   <i type="int" name="LMAXFOCK">     4</i>
   <i type="int" name="NMAXFOCKAE">     1</i>
   <i type="logical" name="LFOCKAEDFT"> F  </i>
   <i name="HFSCREEN">      0.20000000</i>
   <i name="HFSCREENC">      0.20000000</i>
   <i type="int" name="NBANDSGWLOW">     1</i>
  </separator>
  <separator name="vdW DFT" >
   <i type="logical" name="LUSE_VDW"> F  </i>
   <i name="Zab_VDW">     -0.84910000</i>
   <i name="PARAM1">      0.12340000</i>
   <i name="PARAM2">      1.00000000</i>
   <i name="PARAM3">      0.00000000</i>
  </separator>
  <separator name="model GW" >
   <i type="int" name="MODEL_GW">     0</i>
   <i name="MODEL_EPS0">      6.16810942</i>
   <i name="MODEL_ALPHA">      1.00000000</i>
  </separator>
  <separator name="linear response parameters" >
   <i type="logical" name="LEPSILON"> F  </i>
   <i type="logical" name="LRPA"> F  </i>
   <i type="logical" name="LNABLA"> F  </i>
   <i type="logical" name="LVEL"> F  </i>
   <i type="int" name="KINTER">     0</i>
   <i name="CSHIFT">      0.10000000</i>
   <i name="OMEGAMAX">     -1.00000000</i>
   <i name="DEG_THRESHOLD">      0.00200000</i>
   <i name="RTIME">     -0.10000000</i>
   <i name="WPLASMAI">      0.00000000</i>
   <v name="DFIELD">      0.00000000      0.00000000      0.00000000</v>
   <v name="WPLASMA">      0.00000000      0.00000000      0.00000000      0.00000000      0.00000000      0.00000000      0.00000000      0.00000000      0.00000000</v>
  </separator>
  <separator name="orbital magnetization" >
   <i type="logical" name="NUCIND"> F  </i>
   <v name="MAGPOS">      0.00000000      0.00000000      0.00000000</v>
   <i type="logical" name="LNICSALL"> T  </i>
   <i type="logical" name="ORBITALMAG"> F  </i>
   <i type="logical" name="LMAGBLOCH"> F  </i>
   <i type="logical" name="LCHIMAG"> F  </i>
   <i type="logical" name="LGAUGE"> T  </i>
   <i type="int" name="MAGATOM">     0</i>
   <v name="MAGDIPOL">      0.00000000      0.00000000      0.00000000</v>
   <v name="AVECCONST">      0.00000000      0.00000000      0.00000000</v>
  </separator>
  <separator name="response functions" >
   <i type="logical" name="LADDER"> F  </i>
   <i type="logical" name="LRPAFORCE"> F  </i>
   <i type="logical" name="LFXC"> F  </i>
   <i type="logical" name="LHARTREE"> T  </i>
   <i type="int" name="IBSE">     0</i>
   <v type="int" name="KPOINT">    -1     0     0     0</v>
   <i type="logical" name="LTCTE"> F  </i>
   <i type="logical" name="LTETE"> F  </i>
   <i type="logical" name="LTRIPLET"> F  </i>
   <i type="logical" name="LFXCEPS"> F  </i>
   <i type="logical" name="LFXHEG"> F  </i>
   <i type="int" name="NATURALO">     2</i>
   <i type="logical" name="L2ORDER"> F  </i>
   <i type="logical" name="LMP2LT"> F  </i>
   <i type="logical" name="LUSEW"> F  </i>
   <i name="ENCUTGW">     -2.00000000</i>
   <i name="ENCUTGWSOFT">     -2.00000000</i>
   <i name="ENCUTLF">     -1.00000000</i>
   <i type="int" name="LMAXMP2">    -1</i>
   <i name="SCISSOR">      0.00000000</i>
   <i type="int" name="NOMEGA">     0</i>
   <i type="int" name="NOMEGAR">     0</i>
   <i type="int" name="NBANDSGW">    -1</i>
   <i type="int" name="NBANDSO">    -1</i>
   <i type="int" name="NBANDSV">    -1</i>
   <i type="int" name="NELM">     1</i>
   <i type="int" name="NELMHF">     1</i>
   <i type="int" name="DIM">     3</i>
   <i type="int" name="ANTIRES">     0</i>
   <i name="OMEGAMAX">    -30.00000000</i>
   <i name="OMEGAMIN">    -30.00000000</i>
   <i name="OMEGATL">   -200.00000000</i>
   <i type="int" name="OMEGAGRID">   140</i>
   <i name="CSHIFT">     -0.10000000</i>
   <i type="logical" name="SELFENERGY"> F  </i>
   <i type="logical" name="LSPECTRAL"> F  </i>
   <i type="logical" name="LSPECTRALGW"> F  </i>
   <i type="logical" name="LSINGLES"> F  </i>
   <i type="logical" name="LFERMIGW"> F  </i>
   <i type="logical" name="ODDONLYGW"> F  </i>
   <i type="logical" name="EVENONLYGW"> F  </i>
   <i type="int" name="NKREDLFX">     1</i>
   <i type="int" name="NKREDLFY">     1</i>
   <i type="int" name="NKREDLFZ">     1</i>
   <i type="int" name="MAXMEM">  2800</i>
   <i type="int" name="TELESCOPE">     0</i>
   <i type="int" name="TAUPAR">     1</i>
   <i type="int" name="OMEGAPAR">    -1</i>
   <i name="LAMBDA">      1.00000000</i>
  </separator>
  <separator name="External order field" >
   <i name="OFIELD_KAPPA">      0.00000000</i>
   <v name="OFIELD_K">      0.00000000      0.00000000      0.00000000</v>
   <i name="OFIELD_Q6_NEAR">      0.00000000</i>
   <i name="OFIELD_Q6_FAR">      0.00000000</i>
   <i name="OFIELD_A">      0.00000000</i>
  </separator>
  <separator name="solvation model" >
   <i type="logical" name="LSOL"> F  </i>
  </separator>
 </parameters>
 <atominfo>
  <atoms>      72 </atoms>
  <types>       3 </types>
  <array name="atoms" >
   <dimension dim="1">ion</dimension>
   <field type="string">element</field>
   <field type="int">atomtype</field>
   <set>
    <rc><c>Al</c><c>   1</c></rc>
    <rc><c>Al</c><c>   1</c></rc>
    <rc><c>Al</c><c>   1</c></rc>
    <rc><c>Al</c><c>   1</c></rc>
    <rc><c>Al</c><c>   1</c></rc>
    <rc><c>Al</c><c>   1</c></rc>
    <rc><c>Al</c><c>   1</c></rc>
    <rc><c>Al</c><c>   1</c></rc>
    <rc><c>Al</c><c>   1</c></rc>
    <rc><c>Al</c><c>   1</c></rc>
    <rc><c>Al</c><c>   1</c></rc>
    <rc><c>Al</c><c>   1</c></rc>
    <rc><c>Al</c><c>   1</c></rc>
    <rc><c>Al</c><c>   1</c></rc>
    <rc><c>Al</c><c>   1</c></rc>
    <rc><c>Al</c><c>   1</c></rc>
    <rc><c>Al</c><c>   1</c></rc>
    <rc><c>Al</c><c>   1</c></rc>
    <rc><c>Al</c><c>   1</c></rc>
    <rc><c>Al</c><c>   1</c></rc>
    <rc><c>Al</c><c>   1</c></rc>
    <rc><c>Al</c><c>   1</c></rc>
    <rc><c>Al</c><c>   1</c></rc>
    <rc><c>Al</c><c>   1</c></rc>
    <rc><c>Al</c><c>   1</c></rc>
    <rc><c>Al</c><c>   1</c></rc>
    <rc><c>Al</c><c>   1</c></rc>
    <rc><c>Al</c><c>   1</c></rc>
    <rc><c>Al</c><c>   1</c></rc>
    <rc><c>Al</c><c>   1</c></rc>
    <rc><c>Al</c><c>   1</c></rc>
    <rc><c>Al</c><c>   1</c></rc>
    <rc><c>Al</c><c>   1</c></rc>
    <rc><c>Al</c><c>   1</c></rc>
    <rc><c>Al</c><c>   1</c></rc>
    <rc><c>Si</c><c>   2</c></rc>
    <rc><c>N </c><c>   3</c></rc>
    <rc><c>N </c><c>   3</c></rc>
    <rc><c>N </c><c>   3</c></rc>
    <rc><c>N </c><c>   3</c></rc>
    <rc><c>N </c><c>   3</c></rc>
    <rc><c>N </c><c>   3</c></rc>
    <rc><c>N </c><c>   3</c></rc>
    <rc><c>N </c><c>   3</c></rc>
    <rc><c>N </c><c>   3</c></rc>
    <rc><c>N </c><c>   3</c></rc>
    <rc><c>N </c><c>   3</c></rc>
    <rc><c>N </c><c>   3</c></rc>
    <rc><c>N </c><c>   3</c></rc>
    <rc><c>N </c><c>   3</c></rc>
    <rc><c>N </c><c>   3</c></rc>
    <rc><c>N </c><c>   3</c></rc>
    <rc><c>N </c><c>   3</c></rc>
    <rc><c>N </c><c>   3</c></rc>
    <rc><c>N </c><c>   3</c></rc>
    <rc><c>N </c><c>   3</c></rc>
    <rc><c>N </c><c>   3</c></rc>
    <rc><c>N </c><c>   3</c></rc>
    <rc><c>N </c><c>   3</c></rc>
    <rc><c>N </c><c>   3</c></rc>
    <rc><c>N </c><c>   3</c></rc>
    <rc><c>N </c><c>   3</c></rc>
    <rc><c>N </c><c>   3</c></rc>
    <rc><c>N </c><c>   3</c></rc>
    <rc><c>N </c><c>   3</c></rc>
    <rc><c>N </c><c>   3</c></rc>
    <rc><c>N </c><c>   3</c></rc>
    <rc><c>N </c><c>   3</c></rc>
    <rc><c>N </c><c>   3</c></rc>
    <rc><c>N </c><c>   3</c></rc>
    <rc><c>N </c><c>   3</c></rc>
    <rc><c>N </c><c>   3</c></rc>
   </set>
  </array>
  <array name="atomtypes" >
   <dimension dim="1">type</dimension>
   <field type="int">atomspertype</field>
   <field type="string">element</field>
   <field>mass</field>
   <field>valence</field>
   <field type="string">pseudopotential</field>
   <set>
    <rc><c>  35</c><c>Al</c><c>     26.98100000</c><c>      3.00000000</c><c>  PAW_PBE Al 04Jan2001                  </c></rc>
    <rc><c>   1</c><c>Si</c><c>     28.08500000</c><c>      4.00000000</c><c>  PAW_PBE Si 05Jan2001                  </c></rc>
    <rc><c>  36</c><c>N </c><c>     14.00100000</c><c>      5.00000000</c><c>  PAW_PBE N 08Apr2002                   </c></rc>
   </set>
  </array>
 </atominfo>
 <structure name="initialpos" >
  <crystal>
   <varray name="basis" >
    <v>       9.28720188       0.00000000       0.00000000 </v>
    <v>      -4.64360297       8.04295379       0.00000000 </v>
    <v>       0.00000000       0.00000000       9.90906906 </v>
   </varray>
   <i name="volume">    740.17312987 </i>
   <varray name="rec_basis" >
    <v>       0.10767506       0.06216624      -0.00000000 </v>
    <v>       0.00000000       0.12433243       0.00000000 </v>
    <v>       0.00000000      -0.00000000       0.10091765 </v>
   </varray>
  </crystal>
  <varray name="positions" >
   <v>       0.11477445       0.22433808       0.99651827 </v>
   <v>       0.10104544       0.53478422       0.50296989 </v>
   <v>       0.11430981       0.55904517       0.99704564 </v>
   <v>       0.11583523       0.89374193       0.49646697 </v>
   <v>       0.11461798       0.89261656       0.99858994 </v>
   <v>       0.44550620       0.22339161       0.49646379 </v>
   <v>       0.44655613       0.22451668       0.99859313 </v>
   <v>       0.45034323       0.55753052       0.49657151 </v>
   <v>       0.44807379       0.55869586       0.99646418 </v>
   <v>       0.44722729       0.89207117       0.49738115 </v>
   <v>       0.44720079       0.89200245       0.99914482 </v>
   <v>       0.80455710       0.23826536       0.50298728 </v>
   <v>       0.78017890       0.22486916       0.99704043 </v>
   <v>       0.78015104       0.55907975       0.49674414 </v>
   <v>       0.78028885       0.55887386       0.99676917 </v>
   <v>       0.78171405       0.88889524       0.49658366 </v>
   <v>       0.78044449       0.89106232       0.99646099 </v>
   <v>       0.22422968       0.11489832       0.25394227 </v>
   <v>       0.22687037       0.11243466       0.74444184 </v>
   <v>       0.22718356       0.44595333       0.24358640 </v>
   <v>       0.22392566       0.44867211       0.74795550 </v>
   <v>       0.22446895       0.77877465       0.25108201 </v>
   <v>       0.22589130       0.78267749       0.74825869 </v>
   <v>       0.56046388       0.11474530       0.25110067 </v>
   <v>       0.55669504       0.11343581       0.74825130 </v>
   <v>       0.55870657       0.44710082       0.24804800 </v>
   <v>       0.55815172       0.44664432       0.74687037 </v>
   <v>       0.55874596       0.78041738       0.24784927 </v>
   <v>       0.55815808       0.78113834       0.74665629 </v>
   <v>       0.89319252       0.11195525       0.24362313 </v>
   <v>       0.89066060       0.11536092       0.74792348 </v>
   <v>       0.89093515       0.44829501       0.24534519 </v>
   <v>       0.89215133       0.44718761       0.74857312 </v>
   <v>       0.89204348       0.78044270       0.24806312 </v>
   <v>       0.89262618       0.78111497       0.74686687 </v>
   <v>       0.08146136       0.25782718       0.51329759 </v>
   <v>       0.11475896       0.22436163       0.18524254 </v>
   <v>       0.11609370       0.22326661       0.68756978 </v>
   <v>       0.11477497       0.55751723       0.18745024 </v>
   <v>       0.11552573       0.56294817       0.69504191 </v>
   <v>       0.11440128       0.89184785       0.18945656 </v>
   <v>       0.11374648       0.89115182       0.68877852 </v>
   <v>       0.44728242       0.22471516       0.18946569 </v>
   <v>       0.44814439       0.22551854       0.68877955 </v>
   <v>       0.44931198       0.55938820       0.18601926 </v>
   <v>       0.44655656       0.55813038       0.68817997 </v>
   <v>       0.44761474       0.89158300       0.18989936 </v>
   <v>       0.44735473       0.89196022       0.68939015 </v>
   <v>       0.78172843       0.22444719       0.18745522 </v>
   <v>       0.77644011       0.22382493       0.69505344 </v>
   <v>       0.77981788       0.55936246       0.18591451 </v>
   <v>       0.78057773       0.55871724       0.68886278 </v>
   <v>       0.77977137       0.88982887       0.18602008 </v>
   <v>       0.78117539       0.89272269       0.68817602 </v>
   <v>       0.22275687       0.11648282       0.44218971 </v>
   <v>       0.22540132       0.11376724       0.93675042 </v>
   <v>       0.23596841       0.44448683       0.43098141 </v>
   <v>       0.22529694       0.44683201       0.93817585 </v>
   <v>       0.22298315       0.77402099       0.44130843 </v>
   <v>       0.22583118       0.78199637       0.94000972 </v>
   <v>       0.56531015       0.11631645       0.44132780 </v>
   <v>       0.55724870       0.11337134       0.94000552 </v>
   <v>       0.55972432       0.44733349       0.43863350 </v>
   <v>       0.55807090       0.44682675       0.93777437 </v>
   <v>       0.55932789       0.77994223       0.43888384 </v>
   <v>       0.55826952       0.78089993       0.93766176 </v>
   <v>       0.89477224       0.10326596       0.43101552 </v>
   <v>       0.89230881       0.11381806       0.93814351 </v>
   <v>       0.88585875       0.45341269       0.43103395 </v>
   <v>       0.89154549       0.44763590       0.93964000 </v>
   <v>       0.89188593       0.77950924       0.43864104 </v>
   <v>       0.89232256       0.78109544       0.93776247 </v>
  </varray>
 </structure>
 <calculation>
  <scstep>
   <time name="total">    2.89    1.74</time>
   <energy>
    <i name="alphaZ">    290.88492991 </i>
    <i name="ewald"> -10767.84324054 </i>
    <i name="hartreedc">  -2125.36599096 </i>
    <i name="XCdc">   -165.18277787 </i>
    <i name="pawpsdc">   9700.00789610 </i>
    <i name="pawaedc">  -8898.47267357 </i>
    <i name="eentropy">     -0.00337650 </i>
    <i name="bandstr">   2340.70673761 </i>
    <i name="atom">  11348.91900202 </i>
    <i name="e_fr_energy">   1722.55186308 </i>
    <i name="e_wo_entrp">   1722.55523958 </i>
    <i name="e_0_energy">   1722.55355133 </i>
   </energy>
  </scstep>
  <scstep>
   <time name="total">    2.92    1.54</time>
   <energy>
    <i name="e_fr_energy">    275.45086591 </i>
    <i name="e_wo_entrp">    275.45439254 </i>
    <i name="e_0_energy">    275.45262923 </i>
   </energy>
  </scstep>
  <scstep>
   <time name="total">    2.73    1.45</time>
   <energy>
    <i name="e_fr_energy">    170.45736546 </i>
    <i name="e_wo_entrp">    170.46119654 </i>
    <i name="e_0_energy">    170.45928100 </i>
   </energy>
  </scstep>
  <scstep>
   <time name="total">    2.73    1.46</time>
   <energy>
    <i name="e_fr_energy">    168.50333576 </i>
    <i name="e_wo_entrp">    168.50548315 </i>
    <i name="e_0_energy">    168.50440946 </i>
   </energy>
  </scstep>
  <scstep>
   <time name="total">    3.08    1.65</time>
   <energy>
    <i name="e_fr_energy">    168.44446672 </i>
    <i name="e_wo_entrp">    168.44674086 </i>
    <i name="e_0_energy">    168.44560379 </i>
   </energy>
  </scstep>
  <scstep>
   <time name="total">  139.31  138.37</time>
   <energy>
    <i name="e_fr_energy">   -637.48669003 </i>
    <i name="e_wo_entrp">   -637.48300193 </i>
    <i name="e_0_energy">   -637.48484598 </i>
   </energy>
  </scstep>
  <scstep>
   <time name="total">  138.68  137.75</time>
   <energy>
    <i name="e_fr_energy">   -645.98127444 </i>
    <i name="e_wo_entrp">   -645.97736736 </i>
    <i name="e_0_energy">   -645.97932090 </i>
   </energy>
  </scstep>
  <scstep>
   <time name="total">  138.64  137.70</time>
   <energy>
    <i name="e_fr_energy">   -646.63817083 </i>
    <i name="e_wo_entrp">   -646.63435274 </i>
    <i name="e_0_energy">   -646.63626179 </i>
   </energy>
  </scstep>
  <scstep>
   <time name="total">  138.54  137.60</time>
   <energy>
    <i name="e_fr_energy">   -646.72542650 </i>
    <i name="e_wo_entrp">   -646.72104894 </i>
    <i name="e_0_energy">   -646.72323772 </i>
   </energy>
  </scstep>
  <scstep>
   <time name="total">  138.79  137.85</time>
   <energy>
    <i name="e_fr_energy">   -646.74776995 </i>
    <i name="e_wo_entrp">   -646.74434694 </i>
    <i name="e_0_energy">   -646.74605845 </i>
   </energy>
  </scstep>
  <scstep>
   <time name="total">  139.16  138.21</time>
   <energy>
    <i name="e_fr_energy">   -646.75592063 </i>
    <i name="e_wo_entrp">   -646.75223248 </i>
    <i name="e_0_energy">   -646.75407656 </i>
   </energy>
  </scstep>
  <scstep>
   <time name="total">  139.14  138.28</time>
   <energy>
    <i name="e_fr_energy">   -646.75871823 </i>
    <i name="e_wo_entrp">   -646.75427376 </i>
    <i name="e_0_energy">   -646.75649599 </i>
   </energy>
  </scstep>
  <scstep>
   <time name="total">  345.86  344.21</time>
   <energy>
    <i name="e_fr_energy">   -646.76498814 </i>
    <i name="e_wo_entrp">   -646.76123734 </i>
    <i name="e_0_energy">   -646.76311274 </i>
   </energy>
  </scstep>
  <scstep>
   <time name="total">  138.65  137.71</time>
   <energy>
    <i name="e_fr_energy">   -646.77530152 </i>
    <i name="e_wo_entrp">   -646.77164016 </i>
    <i name="e_0_energy">   -646.77347084 </i>
   </energy>
  </scstep>
  <scstep>
   <time name="total">  138.69  137.76</time>
   <energy>
    <i name="e_fr_energy">   -646.77647736 </i>
    <i name="e_wo_entrp">   -646.77296158 </i>
    <i name="e_0_energy">   -646.77471947 </i>
   </energy>
  </scstep>
  <scstep>
   <time name="total">  138.83  137.90</time>
   <energy>
    <i name="e_fr_energy">   -646.77701496 </i>
    <i name="e_wo_entrp">   -646.77365806 </i>
    <i name="e_0_energy">   -646.77533651 </i>
   </energy>
  </scstep>
  <scstep>
   <time name="total">  139.36  138.43</time>
   <energy>
    <i name="e_fr_energy">   -646.77716679 </i>
    <i name="e_wo_entrp">   -646.77406281 </i>
    <i name="e_0_energy">   -646.77561480 </i>
   </energy>
  </scstep>
  <scstep>
   <time name="total">  138.95  138.02</time>
   <energy>
    <i name="e_fr_energy">   -646.77726399 </i>
    <i name="e_wo_entrp">   -646.77428046 </i>
    <i name="e_0_energy">   -646.77577222 </i>
   </energy>
  </scstep>
  <scstep>
   <time name="total">  138.72  137.79</time>
   <energy>
    <i name="e_fr_energy">   -646.77729773 </i>
    <i name="e_wo_entrp">   -646.77444714 </i>
    <i name="e_0_energy">   -646.77587244 </i>
   </energy>
  </scstep>
  <scstep>
   <time name="total">  138.91  137.97</time>
   <energy>
    <i name="e_fr_energy">   -646.77732499 </i>
    <i name="e_wo_entrp">   -646.77452871 </i>
    <i name="e_0_energy">   -646.77592685 </i>
   </energy>
  </scstep>
  <scstep>
   <time name="total">  138.60  137.66</time>
   <energy>
    <i name="e_fr_energy">   -646.77733384 </i>
    <i name="e_wo_entrp">   -646.77456125 </i>
    <i name="e_0_energy">   -646.77594754 </i>
   </energy>
  </scstep>
  <scstep>
   <time name="total">  138.65  137.72</time>
   <energy>
    <i name="e_fr_energy">   -646.77733727 </i>
    <i name="e_wo_entrp">   -646.77458806 </i>
    <i name="e_0_energy">   -646.77596266 </i>
   </energy>
  </scstep>
  <scstep>
   <time name="total">  139.64  138.70</time>
   <energy>
    <i name="e_fr_energy">   -646.77733953 </i>
    <i name="e_wo_entrp">   -646.77461196 </i>
    <i name="e_0_energy">   -646.77597574 </i>
   </energy>
  </scstep>
  <scstep>
   <time name="total">  139.52  138.58</time>
   <energy>
    <i name="e_fr_energy">   -646.77734151 </i>
    <i name="e_wo_entrp">   -646.77463412 </i>
    <i name="e_0_energy">   -646.77598781 </i>
   </energy>
  </scstep>
  <scstep>
   <time name="total">  139.15  138.21</time>
   <energy>
    <i name="e_fr_energy">   -646.77734275 </i>
    <i name="e_wo_entrp">   -646.77464971 </i>
    <i name="e_0_energy">   -646.77599623 </i>
   </energy>
  </scstep>
  <scstep>
   <time name="total">  208.66  207.51</time>
   <energy>
    <i name="alphaZ">    290.88492991 </i>
    <i name="ewald"> -10761.19224206 </i>
    <i name="hartreedc">  -2804.69028709 </i>
    <i name="XCdc">   -126.17959200 </i>
    <i name="pawpsdc"> 149874.07717147 </i>
    <i name="pawaedc">-149081.38273646 </i>
    <i name="eentropy">     -0.00268489 </i>
    <i name="bandstr">   -250.40988383 </i>
    <i name="atom">  11348.91900202 </i>
    <i name="e_fr_energy">   -646.77734347 </i>
    <i name="e_wo_entrp">   -646.77465858 </i>
    <i name="e_0_energy">   -646.77600103 </i>
   </energy>
  </scstep>
  <structure>
   <crystal>
    <varray name="basis" >
     <v>       9.28720188       0.00000000       0.00000000 </v>
     <v>      -4.64360297       8.04295379       0.00000000 </v>
     <v>       0.00000000       0.00000000       9.90906906 </v>
    </varray>
    <i name="volume">    740.17312987 </i>
    <varray name="rec_basis" >
     <v>       0.10767506       0.06216624      -0.00000000 </v>
     <v>       0.00000000       0.12433243       0.00000000 </v>
     <v>       0.00000000      -0.00000000       0.10091765 </v>
    </varray>
   </crystal>
   <varray name="positions" >
    <v>       0.11451116       0.22458836       0.99711523 </v>
    <v>       0.10693553       0.54432565       0.50181597 </v>
    <v>       0.11432397       0.55835791       0.99761427 </v>
    <v>       0.11331161       0.89191285       0.49815876 </v>
    <v>       0.11459579       0.89197769       0.99870254 </v>
    <v>       0.44734974       0.22592878       0.49812144 </v>
    <v>       0.44723866       0.22459222       0.99868983 </v>
    <v>       0.44832775       0.55742800       0.49711359 </v>
    <v>       0.44795271       0.55837368       0.99717347 </v>
    <v>       0.44755625       0.89166624       0.49852960 </v>
    <v>       0.44742751       0.89172192       0.99837804 </v>
    <v>       0.79499639       0.23227623       0.50183072 </v>
    <v>       0.78075118       0.22478781       0.99757438 </v>
    <v>       0.78121410       0.55804889       0.49752807 </v>
    <3644       0.68908533 </v>
    <v>       0.44938664       0.55926334       0.18606050 </v>
    <v>       0.44699934       0.55810283       0.68835987 </v>
    <v>       0.44763590       0.89137857       0.18945160 </v>
    <v>       0.44757099       0.89183157       0.68966095 </v>
    <v>       0.78146471       0.22425882       0.18783818 </v>
    <v>       0.77665118       0.22345910       0.69474794 </v>
    <v>       0.78003248       0.55904364       0.18658840 </v>
    <v>       0.78088650       0.55856853       0.68920960 </v>
    <v>       0.77975659       0.88963738       0.18605532 </v>
    <v>       0.78135251       0.89244008       0.68834804 </v>
    <v>       0.21788586       0.12137938       0.44391560 </v>
    <v>       0.22572840       0.11348875       0.93826476 </v>
    <v>       0.23688687       0.44464302       0.43107471 </v>
    <v>       0.22535222       0.44661614       0.93784665 </v>
    <v>       0.22338754       0.77610963       0.44094506 </v>
    <v>       0.22576423       0.78168092       0.94020891 </v>
    <v>       0.56314392       0.11583842       0.44096396 </v>
    <v>       0.55754358       0.11342740       0.94020186 </v>
    <v>       0.55997604       0.44749279       0.43900353 </v>
    <v>       0.55833851       0.44668965       0.93825506 </v>
    <v>       0.55908200       0.78017789       0.43897778 </v>
    <v>       0.55847133       0.78073675       0.93783791 </v>
    <v>       0.89459618       0.10235818       0.43110893 </v>
    <v>       0.89256119       0.11382263       0.93778505 </v>
    <v>       0.88663852       0.45256166       0.43194877 </v>
    <v>       0.89176386       0.44742680       0.93963097 </v>
    <v>       0.89173470       0.77927526       0.43900945 </v>
    <v>       0.89251475       0.78089632       0.93823925 </v>
   </varray>
  </structure>
  <varray name="forces" >
   <v>       0.02824881      -0.01386261      -0.02662297 </v>
   <v>       0.00924760      -0.27865510       0.03749954 </v>
   <v>       0.00452315       0.02129938      -0.02261559 </v>
   <v>       0.00880291       0.06051831      -0.02598533 </v>
   <v>       0.00819888       0.00507331       0.06321231 </v>
   <v>      -0.04751130      -0.03690399      -0.02525108 </v>
   <v>      -0.00102556      -0.00838741       0.06223220 </v>
   <v>       0.09695606       0.03577381      -0.01135269 </v>
   <v>       0.02733615       0.01326598      -0.05053421 </v>
   <v>      -0.02725401       0.01599738      -0.02532671 </v>
   <v>      -0.00416695       0.00320575       0.04362283 </v>
   <v>       0.24635750       0.13026556       0.03792264 </v>
   <v>      -0.01594835      -0.01298181      -0.02254654 </v>
   <v>      -0.03642713       0.02111466      -0.00481788 </v>
   <v>      -0.01846410       0.01034043      -0.04172085 </v>
   <v>       0.01684289      -0.10274900      -0.01179133 </v>
   <v>       0.00323173      -0.02895563      -0.04904266 </v>
   <v>      -0.05263300       0.03419292       0.17032563 </v>
   <v>       0.06048201      -0.03895436      -0.02882850 </v>
   <v>       0.03212913       0.01613546      -0.14702089 </v>
   <v>       0.03404753       0.01617204       0.08315673 </v>
   <v>      -0.01055539      -0.02989287       0.10486466 </v>
   <v>       0.00379095       0.04947706      -0.00569620 </v>
   <v>       0.02291984       0.02655334       0.10279439 </v>
   <v>      -0.04530577      -0.03178457      -0.00478059 </v>
   <v>       0.01811639       0.00159246      -0.00949834 </v>
   <v>       0.00516644      -0.02584852      -0.02623720 </v>
   <v>       0.00384135      -0.00000727      -0.02201516 </v>
   <v>      -0.01658118       0.00713839      -0.03686923 </v>
   <v>       0.00668712      -0.03132256      -0.15060037 </v>
   <v>      -0.00096901      -0.04176748       0.08712824 </v>
   <v>      -0.00796650       0.00558081      -0.12432492 </v>
   <v>      -0.03453370       0.01757478       0.07013185 </v>
   <v>       0.01073891      -0.01286343      -0.01024908 </v>
   <v>       0.02291194       0.00627265      -0.02516853 </v>
   <v>      -0.74160554       0.42763042       0.19012418 </v>
   <v>      -0.01323136       0.01253430      -0.04401853 </v>
   <v>      -0.03962167       0.01776218       0.09667963 </v>
   <v>       0.00746552       0.00237005      -0.03685588 </v>
   <v>      -0.00103957      -0.05373953       0.07379073 </v>
   <v>      -0.00134274       0.01667890       0.06058532 </v>
   <v>       0.00018248      -0.01115906       0.01378647 </v>
   <v>      -0.01150257      -0.00267027       0.06014414 </v>
   <v>       0.00494891       0.00094690       0.01417517 </v>
   <v>       0.03526417       0.01462255      -0.05519618 </v>
   <v>      -0.01519919      -0.01896781      -0.01357201 </v>
   <v>      -0.01117664       0.00845754       0.05914570 </v>
   <v>      -0.00003994      -0.00271253      -0.00336700 </v>
   <v>       0.00481178      -0.00522472      -0.03761682 </v>
   <v>       0.04129080       0.02234516       0.07519732 </v>
   <v>      -0.00757027       0.00620649      -0.05243566 </v>
   <v>       0.01930798      -0.01331008      -0.00825811 </v>
   <v>       0.00807994      -0.03518334      -0.05501025 </v>
   <v>       0.00574875       0.01958498      -0.01312983 </v>
   <v>       0.10462335      -0.06014467       0.03596050 </v>
   <v>       0.01391745      -0.00877683      -0.01575298 </v>
   <v>       0.15697930       0.07817663      -0.14933991 </v>
   <v>       0.01406122       0.00217250       0.00186653 </v>
   <v>      -0.00995691      -0.11478059       0.10408952 </v>
   <v>       0.00082430       0.01283152      -0.00253187 </v>
   <v>       0.09434295       0.06667010       0.10188837 </v>
   <v>      -0.01099891      -0.00632006      -0.00243749 </v>
   <v>       0.02933196       0.01744344      -0.00223725 </v>
   <v>       0.00500488      -0.01771052      -0.02856610 </v>
   <v>       0.01427114      -0.00804456      -0.01166859 </v>
   <v>      -0.01102894       0.00737598      -0.03814552 </v>
   <v>       0.01099099      -0.17543673      -0.15114412 </v>
   <v>       0.00508569      -0.01240895       0.00501204 </v>
   <v>      -0.06468979       0.03714539      -0.09602414 </v>
   <v>      -0.00607871       0.00335416       0.00123864 </v>
   <v>      -0.00030524      -0.03421785      -0.00267831 </v>
   <v>       0.01761909       0.00389106      -0.02769188 </v>
  </varray>
  <varray name="stress" >
   <v>     -16.59950083       0.22006601      -0.74003551 </v>
   <v>       0.22006611     -16.37809037       0.44722162 </v>
   <v>      -0.74003553       0.44722158       1.74782358 </v>
  </varray>
  <energy>
   <i name="e_fr_energy">   -647.75446929 </i>
   <i name="e_wo_entrp">   -647.75446929 </i>
   <i name="e_0_energy">     -0.00000000 </i>
  </energy>
  <time name="totalsc"> 3338.73 3317.98</time>
 </calculation>
 </varray>
  <energy>
   <i name="e_fr_energy">   -647.43445816 </i>
   <i name="e_wo_entrp">   -647.43445816 </i>
   <i name="e_0_energy">     -0.00000000 </i>
  </energy>
  <time name="totalsc"> 3339.61 3317.95</time>
 </calculation>
   -0.00389971       0.01291067      -0.01969192 </v>
   <v>      -0.08725572       0.05001542       0.10242959 </v>
   <v>       0.06838371      -0.03692281       0.11129957 </v>
   <v>       0.69863099       0.47326110      -0.59157761 </v>
   <v>       0.02075839       0.00933001      -0.01711731 </v>
   <v>       0.00118947      -0.11743552       0.10702164 </v>
   <v>       0.00146260       0.05743178       0.07675684 </v>
   <v>       0.10795652       0.06291240       0.09907906 </v>
   <v>      -0.03602016      -0.01653661       0.07520859 </v>
   <v>       0.04109296       0.01485342       0.04563423 </v>
   <v>       0.00361742      -0.01410160      -0.02901872 </v>
   <v>      -0.00980487       0.00364138       0.05329594 </v>
   <v>      -0.01039166       0.01850815      -0.04529299 </v>
   <v>      -0.05093374      -0.83336515      -0.58641959 </v>
   <v>       0.01569059      -0.01183979      -0.01142512 </v>
   <v>      -0.42327913       0.25651177      -0.35556237 </v>
   <v>      -0.00466999       0.01377137       0.00933269 </v>
   <v>       0.009594 <calculation>
  <scstep>
   <time name="total">  139.26  138.31</time>
   <energy>
    <i name="alphaZ">    290.88492991 </i>
    <i name="ewald"> -10764.96970719 </i>
    <i name="hartreedc">  -2803.80947492 </i>
    <i name="XCdc">   -126.08284079 </i>
    <i name="pawpsdc"> 149997.95191812 </i>
    <i name="pawaedc">-149205.33755832 </i>
    <i name="eentropy">     -0.00000000 </i>
    <i name="bandstr">   -248.86215563 </i>
    <i name="atom">  11348.91900202 </i>
    <i name="e_fr_energy">   -647.42621234 </i>
    <i name="e_wo_entrp">   -647.42621234 </i>
 <calculation>
  <scstep>
   <time name="total">  138.77  137.83</time>
   <energy>
    <i name="alphaZ">    290.88492991 </i>
    <i name="ewald"> -10761.20831024 </i>
    <i name="hartreedc">  -2804.68611745 </i>
    <i name="XCdc">   -126.17989591 </i>
    <i name="pawpsdc"> 149878.09736271 </i>
    <i name="pawaedc">-149085.40258306 </i>
    <i name="eentropy">     -0.00268359 </i>
    <i name="bandstr">   -250.39307723 </i>
    <i name="atom">  11348.91900202 </i>
    <i name="e_fr_energy">   -646.77324041 </i>
    <i name="e_wo_entrp">   -646.77055682 </i>
    <i name="e_0_energy">   -646.77189862 </i>
   </energy>
  </scstep>
  <scstep>
   <time name="total">  138.14  137.21</time>
   <energy>
    <i name="e_fr_energy">   -646.77589957 </i>
    <i name="e_wo_entrp">   -646.77328549 </i>
    <i name="e_0_energy">   -646.77459253 </i>
   </energy>
  </scstep>
  <scstep>
   <time name="total">  138.39  137.46</time>
   <energy>
    <i name="e_fr_energy">   -646.77638453 </i>
    <i name="e_wo_entrp">   -646.77375245 </i>
    <i name="e_0_energy">   -646.77506849 </i>
   </energy>
  </scstep>
  <scstep>
   <time name="total">  138.38  137.45</time>
   <energy>
    <i name="e_fr_energy">   -646.77647290 </i>
    <i name="e_wo_entrp">   -646.77386397 </i>
    <i name="e_0_energy">   -646.77516843 </i>
   </energy>
  </scstep>
  <scstep>
   <time name="total">  138.15  137.21</time>
   <energy>
    <i name="e_fr_energy">   -646.77649848 </i>
    <i name="e_wo_entrp">   -646.77390994 </i>
    <i name="e_0_energy">   -646.77520421 </i>
   </energy>
  </scstep>
  <scstep>
   <time name="total">  138.27  137.34</time>
   <energy>
    <i name="e_fr_energy">   -646.77650736 </i>
    <i name="e_wo_entrp">   -646.77394458 </i>
    <i name="e_0_energy">   -646.77522597 </i>
   </energy>
  </scstep>
  <scstep>
   <time name="total">  138.62  137.68</time>
   <energy>
    <i name="e_fr_energy">   -646.77651135 </i>
    <i name="e_wo_entrp">   -646.77396577 </i>
    <i name="e_0_energy">   -646.77523856 </i>
   </energy>
  </scstep>
  <scstep>
   <time name="total">  138.77  137.84</time>
   <energy>
    <i name="e_fr_energy">   -646.77651293 </i>
    <i name="e_wo_entrp">   -646.77398417 </i>
    <i name="e_0_energy">   -646.77524855 </i>
   </energy>
  </scstep>
  <scstep>
   <time name="total">  207.92  206.77</time>
   <energy>
    <i name="alphaZ">    290.88492991 </i>
    <i name="ewald"> -10761.20831024 </i>
    <i name="hartreedc">  -2804.62662178 </i>
    <i name="XCdc">   -126.18272437 </i>
    <i name="pawpsdc"> 149888.93348021 </i>
    <i name="pawaedc">-149096.23751641 </i>
    <i name="eentropy">     -0.00251737 </i>
    <i name="bandstr">   -250.44032640 </i>
    <i name="atom">  11348.91900202 </i>
    <i name="e_fr_energy">   -646.77651359 </i>
    <i name="e_wo_entrp">   -646.77399622 </i>
    <i name="e_0_energy">   -646.77525490 </i>
   </energy>
  </scstep>
  <structure>
   <crystal>
    <varray name="basis" >
     <v>       9.28720188       0.00000000       0.00000000 </v>
     <v>      -4.64360297       8.04295379       0.00000000 </v>
     <v>       0.00000000       0.00000000       9.90906906 </v>
    </varray>
    <i name="volume">    740.17312987 </i>
    <varray name="rec_basis" >
     <v>       0.10767506       0.06216624      -0.00000000 </v>
     <v>       0.00000000       0.12433243       0.00000000 </v>
     <v>       0.00000000      -0.00000000       0.10091765 </v>
    </varray>
   </crystal>
   <varray name="positions" >
    <v>       0.11451165       0.22457045       0.99710207 </v>
    <v>       0.10691476       0.54433108       0.50182375 </v>
    <v>       0.11433281       0.55834310       0.99761748 </v>
    <v>       0.11327094       0.89187901       0.49817521 </v>
    <v>       0.11458145       0.89194928       0.99874274 </v>
    <v>       0.44738274       0.22597416       0.49814531 </v>
    <v>       0.44724645       0.22458685       0.99872487 </v>
    <v>       0.44842489       0.55748421       0.49711562 </v>
    <v>       0.44795215       0.55836285       0.99712088 </v>
    <v>       0.44754638       0.89166367       0.49852408 </v>
    <v>       0.44742702       0.89170077       0.99839267 </v>
    <v>       0.79497005       0.23228456       0.50184135 </v>
    <v>       0.78074056       0.22475641       0.99757889 </v>
    <v>       0.78121133       0.55804788       0.49755147 </v>
    <v>       0.78074999       0.55848373       0.99784377 </v>
    <v>       0.78173470       0.89080844       0.49715322 </v>
    <v>       0.78081786       0.89130076       0.99710614 </v>
    <v>       0.22400143       0.11499170       0.24952025 </v>
    <v>       0.22672513       0.11282865       0.74763736 </v>
    <v>       0.22666910       0.44623533       0.24633988 </v>
    <v>       0.22415693       0.44758390       0.74647280 </v>
    <v>       0.22539742       0.77986632       0.24921218 </v>
    <v>       0.22573816       0.78131763       0.74855980 </v>
    <v>       0.55902681       0.11357122       0.24923270 </v>
    <v>       0.55827887       0.11376602       0.74854331 </v>
    <v>       0.55878209       0.44747169       0.24835381 </v>
    <v>       0.55877337       0.44699790       0.74794998 </v>
    <v>       0.55872070       0.78027029       0.24783664 </v>
    <v>       0.55865527       0.78086067       0.74749491 </v>
    <v>       0.89269606       0.11237359       0.24637372 </v>
    <v>       0.89201444       0.11536021       0.74640517 </v>
    <v>       0.89140857       0.44753058       0.24754014 </v>
    <v>       0.89280847       0.44674299       0.74810753 </v>
    <v>       0.89155908       0.78029401       0.24835822 </v>
    <v>       0.89250581       0.78073401       0.74795302 </v>
    <v>       0.10322788       0.23598417       0.50441353 </v>
    <v>       0.11423252       0.22475963       0.18658642 </v>
    <v>       0.11655400       0.22304772       0.68384802 </v>
    <v>       0.11488300       0.55772604       0.18880896 </v>
    <v>       0.11568342       0.56136611       0.69247979 </v>
    <v>       0.11457848       0.89229527       0.19022334 </v>
    <v>       0.11443485       0.89176457       0.68878061 </v>
    <v>       0.44680553       0.22455967       0.19018969 </v>
    <v>       0.44781828       0.22509204       0.68875973 </v>
    <v>       0.44856228       0.55879679       0.18698717 </v>
    <v>       0.44731942       0.55815141       0.68846782 </v>
    <v>       0.44769446       0.89137436       0.18903657 </v>
    <v>       0.44764793       0.89185782       0.68955163 </v>
    <v>       0.78125143       0.22416362       0.18880137 </v>
    <v>       0.77828104       0.22390008       0.69246363 </v>
    <v>       0.78040075       0.55878994       0.18753804 </v>
    <v>       0.78109427       0.55846218       0.68926306 </v>
    <v>       0.78033718       0.89065023       0.18702206 </v>
    <v>       0.78137646       0.89218097       0.68846155 </v>
    <v>       0.21679125       0.12246043       0.44354465 </v>
    <v>       0.22558442       0.11355495       0.93864774 </v>
    <v>       0.22819598       0.43944643       0.43586153 </v>
    <v>       0.22506336       0.44623774       0.93764544 </v>
    <v>       0.22438822       0.77844076       0.43981163 </v>
    <v>       0.22547414       0.78113303       0.93998389 </v>
    <v>       0.56071798       0.11476455       0.43984216 </v>
    <v>       0.55791257       0.11357013       0.93996750 </v>
    <v>       0.55930486       0.44731373       0.43913206 </v>
    <v>       0.55846179       0.44658829       0.93865694 </v>
    <v>       0.55879816       0.78044334       0.43903362 </v>
    <v>       0.55850966       0.78059664       0.93813305 </v>
    <v>       0.89969553       0.11092705       0.43584219 </v>
    <v>       0.89280654       0.11404805       0.93756757 </v>
    <v>       0.88910754       0.44992317       0.43471794 </v>
    <v>       0.89185019       0.44718136       0.93963033 </v>
    <v>       0.89190742       0.77995025       0.43915846 </v>
    <v>       0.89250032       0.78069526       0.93865192 </v>
   </varray>
  </structure>
  <varray name="forces" >
   <v>       0.01083187      -0.00721854      -0.04383014 </v>
   <v>       0.05707050      -1.08012517       0.25179317 </v>
   <v>       0.01610975      -0.00913468      -0.04473148 </v>
   <v>       0.00832891       0.08203034      -0.05941728 </v>
   <v>       0.01868472       0.01133834       0.04796822 </v>
   <v>      -0.06504311      -0.04693976      -0.05238083 </v>
   <v>      -0.00763767      -0.02833815       0.04758506 </v>
   <v>       0.04589188      -0.00917445      -0.12176516 </v>
   <v>       0.00053598      -0.00387369      -0.06397113 </v>
   <v>      -0.05973265       0.03384783      -0.05413652 </v>
   <v>      -0.01843516       0.00453765       0.02265600 </v>
   <v>       0.95553070       0.48685879       0.25228084 </v>
   <v>       0.00977145      -0.01177161      -0.04033404 </v>
   <v>       0.02285299      -0.01528786      -0.08275912 </v>
   <v>      -0.01054872      -0.00311385      -0.04223044 </v>
   <v>       0.03154538      -0.03927261      -0.12752322 </v>
   <v>      -0.00193957      -0.01352812      -0.05714734 </v>
   <v>      -0.06808154       0.04966058       0.19304894 </v>
   <v>       0.07765770      -0.04296880       0.01565142 </v>
   <v>       0.09994237       0.03072901      -0.03566826 </v>
   <v>      -0.13655743      -0.13079133      -0.15034210 </v>
   <v>      -0.01767218      -0.02743890       0.11219923 </v>
   <v>      -0.00671243       0.02452551       0.00014590 </v>
   <v>       0.03067735       0.04317436       0.11270671 </v>
   <v>      -0.03447599      -0.00750132      -0.00316505 </v>
   <v>       0.00151260       0.03319601       0.02854429 </v>
   <v>       0.00439632      -0.02285461      -0.06742596 </v>
   <v>       0.03616876      -0.00556666      -0.00988178 </v>
   <v>      -0.00518782      -0.00273444      -0.06776053 </v>
   <v>       0.03515568      -0.08979569      -0.03914166 </v>
   <v>       0.03173601       0.18278296      -0.15043464 </v>
   <v>      -0.03540256       0.02995390      -0.00110773 </v>
   <v>       0.11180973      -0.07190713      -0.11621506 </v>
   <v>      -0.01974903      -0.00217436       0.03075373 </v>
   <v>       0.01757610       0.00222256      -0.06736999 </v>
   <v>      -1.63392516       0.94275721       0.50759526 </v>
   <v>      -0.01362983       0.00662568      -0.07157213 </v>
   <v>       0.39729713      -0.23189933       0.59250814 </v>
   <v>       0.01907241       0.01204737      -0.05144519 </v>
   <v>      -0.01408327       0.26647156       0.32892149 </v>
   <v>      -0.02058781      -0.00618029       0.03666523 </v>
   <v>       0.01131898      -0.03293388       0.02818700 </v>
   <v>      -0.01343897       0.00734773       0.04198847 </v>
   <v>       0.02592583      -0.00401374       0.02964227 </v>
   <v>       0.05553515       0.05416142      -0.15629569 </v>
   <v>      -0.00478485      -0.00179684      -0.01213325 </v>
   <v>      -0.00227807      -0.00985635       0.03889385 </v>
   <v>      -0.00110692      -0.00514265       0.00949001 </v>
   <v>      -0.00024794      -0.02683649      -0.05482385 </v>
   <v>      -0.24990349      -0.13358275       0.33838795 </v>
   <v>      -0.05392192       0.02552788      -0.11988743 </v>
   <v>      -0.00612566       0.00025470       0.01851806 </v>
   <v>      -0.02127791      -0.09917959      -0.16600862 </v>
   <v>      -0.00440737       0.00097998      -0.00942029 </v>
   <v>      -0.08160749       0.04706863       0.09761476 </v>
   <v>       0.07012362      -0.03776010       0.10850085 </v>
   <v>       0.69188635       0.46424845      -0.58774209 </v>
   <v>       0.02479920       0.01158911      -0.00641601 </v>
   <v>       0.00230804      -0.11397869       0.09561764 </v>
   <v>       0.00486912       0.05454516       0.07912368 </v>
   <v>       0.10455511       0.05893664       0.08956984 </v>
   <v>      -0.03257281      -0.01865500       0.07817973 </v>
   <v>       0.04521136       0.01964106       0.03936174 </v>
   <v>       0.00393555      -0.01070611      -0.02794907 </v>
   <v>      -0.00900399       0.00292097       0.04499162 </v>
   <v>      -0.00636365       0.01626709      -0.04238019 </v>
   <v>      -0.04633859      -0.82270662      -0.58285406 </v>
   <v>       0.01738952      -0.01667167      -0.00104648 </v>
   <v>      -0.42282687       0.25512633      -0.36001249 </v>
   <v>      -0.00335875       0.01377481       0.01896158 </v>
   <v>       0.00832573      -0.05022244       0.03684970 </v>
   <v>       0.02262732       0.01848465      -0.026176 <calculation>
  <scstep>
   <time name="total">  138.50  137.56</time>
   <energy>
    <i name="alphaZ">    290.88492991 </i>
    <i name="ewald"> -10764.83082406 </i>
    <i name="hartreedc">  -2803.90560829 </i>
    <i name="XCdc">   -126.08320982 </i>
    <i name="pawpsdc"> 149984.80775213 </i>
    <i name="pawaedc">-149192.19183225 </i>
    <i name="eentropy">     -0.00000000 </i>
    <i name="bandstr">   -248.88507456 </i>
    <i name="atom">  11348.91900202 </i <calculation>
  <scstep>
   <time name="total">  139.89  138.95</time>
   <energy>
    <i name="alphaZ">    290.88492991 </i>
    <i name="ewald"> -10761.24081758 </i>
    <i name="hartreedc">  -2804.62540329 </i>
    <i name="XCdc">   -126.18299620 </i>
    <i name="pawpsdc"> 149889.76695419 </i>
    <i name="pawaedc">-149097.07040111 </i>
    <i name="eentropy">     -0.00248662 </i>
    <i name="bandstr">   -250.39547923 </i>
    <i name="atom">  11348.91900202 </i>
    <i name="e_fr_energy">   -646.76318308 </i>
    <i name="e_wo_entrp">   -646.76069646 </i>
    <i name="e_0_energy">   -646.76193977 </i>
   </energy>
  </scstep>
  <scstep>
   <time name="total">  138.97  138.03</time>
   <energy>
    <i name="e_fr_energy">   -646.77212402 </i>
    <i name="e_wo_entrp">   -646.76976968 </i>
    <i name="e_0_energy">   -646.77094685 </i>
   </energy>
  </scstep>
  <scstep>
   <time name="total">  139.00  138.07</time>
   <energy>
    <i name="e_fr_energy">   -646.77364126 </i>
    <i name="e_wo_entrp">   -646.77125659 </i>
    <i name="e_0_energy">   -646.77244892 </i>
   </energy>
  </scstep>
  <scstep>
   <time name="total">  139.93  139.00</time>
   <energy>
    <i name="e_fr_energy">   -646.77387962 </i>
    <i name="e_wo_entrp">   -646.77154661 </i>
    <i name="e_0_energy">   -646.77271312 </i>
   </energy>
  </scstep>
  <scstep>
   <time name="total">  138.93  138.00</time>
   <energy>
    <i name="e_fr_energy">   -646.77394934 </i>
    <i name="e_wo_entrp">   -646.77165828 </i>
    <i name="e_0_energy">   -646.77280381 </i>
   </energy>
  </scstep>
  <scstep>
   <time name="total">  139.06  138.13</time>
   <energy>
    <i name="e_fr_energy">   -646.77397619 </i>
    <i name="e_wo_entrp">   -646.77173063 </i>
    <i name="e_0_energy">   -646.77285341 </i>
   </energy>
  </scstep>
  <scstep>
   <time name="total">  139.60  138.66</time>
   <energy>
    <i name="e_fr_energy">   -646.77398771 </i>
    <i name="e_wo_entrp">   -646.77177440 </i>
    <i name="e_0_energy">   -646.77288105 </i>
   </energy>
  </scstep>
  <scstep>
   <time name="total">  139.11  138.17</time>
   <energy>
    <i name="e_fr_energy">   -646.77399176 </i>
    <i name="e_wo_entrp">   -646.77179874 </i>
    <i name="e_0_energy">   -646.77289525 </i>
   </energy>
  </scstep>
  <scstep>
   <time name="total">  139.12  138.19</time>
   <energy>
    <i name="e_fr_energy">   -646.77399314 </i>
    <i name="e_wo_entrp">   -646.77182084 </i>
    <i name="e_0_energy">   -646.77290699 </i>
   </energy>
  </scstep>
  <scstep>
   <time name="total">  208.01  206.86</time>
   <energy>
    <i name="alphaZ">    290.88492991 </i>
    <i name="ewald"> -10761.24081758 </i>
    <i name="hartreedc">  -2804.51993853 </i>
    <i name="XCdc">   -126.18791400 </i>
    <i name="pawpsdc"> 149883.75204697 </i>
    <i name="pawaedc">-149091.05355319 </i>
    <i name="eentropy">     -0.00215964 </i>
    <i name="bandstr">   -250.48518527 </i>
    <i name="atom">  11348.91900202 </i>
    <i name="e_fr_energy">   -646.77399379 </i>
    <i name="e_wo_entrp">   -646.77183415 </i>
    <i name="e_0_energy">   -646.77291397 </i>
   </energy>
  </scstep>
  <structure>
   <crystal>
    <varray name="basis" >
     <v>       9.28720188       0.00000000       0.00000000 </v>
     <v>      -4.64360297       8.04295379       0.00000000 </v>
     <v>       0.00000000       0.00000000       9.90906906 </v>
    </varray>
    <i name="volume">    740.17312987 </i>
    <varray name="rec_basis" >
     <v>       0.10767506       0.06216624      -0.00000000 </v>
     <v>       0.00000000       0.12433243       0.00000000 </v>
     <v>       0.00000000      -0.00000000       0.10091765 </v>
    </varray>
   </crystal>
   <varray name="positions" >
    <v>       0.11451134       0.22453482       0.99707981 </v>
    <v>       0.10689235       0.54436507       0.50183831 </v>
    <v>       0.11434461       0.55831908       0.99761811 </v>
    <v>       0.11320643       0.89183427       0.49819757 </v>
    <v>       0.11455270       0.89189604       0.99883116 </v>
    <v>       0.44742573       0.22604664       0.49818134 </v>
    <v>       0.44725736       0.22457386       0.99880377 </v>
    <v>       0.44857445       0.55757257       0.49711363 </v>
    <v>       0.44795228       0.55834237       0.99701653 </v>
    <v>       0.44752410       0.89166551       0.49851339 </v>
    <v>       0.44742101       0.89166574       0.99842216 </v>
    <v>       0.79489595       0.23228421       0.50186013 </v>
    <v>       0.78071316       0.22469925       0.99758348 </v>
    <v>       0.78121205       0.55803928       0.49758728 </v>
    <v>       0.78073590       0.55845584       0.99780708 </v>
    <v>       0.78163046       0.89063400       0.49715244 </v>
    <v>       0.78080108       0.89126456       0.99702132 </v>
    <v>       0.22398102       0.11508534       0.24952551 </v>
    <v>       0.22677951       0.11274641       0.74779382 </v>
    <v>       0.22678719       0.44636295       0.24619499 </v>
    <v>       0.22424655       0.44759313       0.74654716 </v>
    <v>       0.22541515       0.77983925       0.24925245 </v>
    <v>       0.22577568       0.78135849       0.74861323 </v>
    <v>       0.55910617       0.11361055       0.24926246 </v>
    <v>       0.55822690       0.11372924       0.74859084 </v>
    <v>       0.55884006       0.44752709       0.24832697 </v>
    <v>       0.55876477       0.44695257       0.74794465 </v>
    <v>       0.55873798       0.78032399       0.24780583 </v>
    <v>       0.55864304       0.78085923       0.74746055 </v>
    <v>       0.89266316       0.11234071       0.24621128 </v>
    <v>       0.89198349       0.11524597       0.74650656 </v>
    <v>       0.89144876       0.44754404       0.24742809 </v>
    <v>       0.89278066       0.44676213       0.74818513 </v>
    <v>       0.89158472       0.78031910       0.24833262 </v>
    <v>       0.89254905       0.78075241       0.74796179 </v>
    <v>       0.10326052       0.23595200       0.50443986 </v>
    <v>       0.11425994       0.22481280       0.18660140 </v>
    <v>       0.11652575       0.22304195       0.68389535 </v>
    <v>       0.11494047       0.55773623       0.18882436 </v>
    <v>       0.11565566       0.56126630       0.69245648 </v>
    <v>       0.11461324       0.89233384       0.19032821 </v>
    <v>       0.11447316       0.89177637       0.68875648 </v>
    <v>       0.44682797       0.22457867       0.19029788 </v>
    <v>       0.44777900       0.22504501       0.68873693 </v>
    <v>       0.44866803       0.55881856       0.18691348 </v>
    <v>       0.44726901       0.55809329       0.68839493 </v>
    <v>       0.44772285       0.89139018       0.18906822 </v>
    <v>       0.44763481       0.89186503       0.68951364 </v>
    <v>       0.78128852       0.22414719       0.18881969 </v>
    <v>       0.77835473       0.22390087       0.69244740 </v>
    <v>       0.78043595       0.55881063       0.18754194 </v>
    <v>       0.78112318       0.55842855       0.68923572 </v>
    <v>       0.78037699       0.89059592       0.18695031 </v>
    <v>       0.78141439       0.89221653       0.68839456 </v>
    <v>       0.21672012       0.12253477       0.44362483 </v>
    <v>       0.22557904       0.11351112       0.93875661 </v>
    <v>       0.22814703       0.43949167       0.43588861 </v>
    <v>       0.22502212       0.44619160       0.93759483 </v>
    <v>       0.22431327       0.77834754       0.43992323 </v>
    <v>       0.22545372       0.78113507       0.94000372 </v>
    <v>       0.56081844       0.11485069       0.43994081 </v>
    <v>       0.55787547       0.11355463       0.93997771 </v>
    <v>       0.55931689       0.44734207       0.43914865 </v>
    <v>       0.55843488       0.44652386       0.93862296 </v>
    <v>       0.55878756       0.78045130       0.43904541 </v>
    <v>       0.55847262       0.78059982       0.93806847 </v>
    <v>       0.89965256       0.11097509       0.43587245 </v>
    <v>       0.89279957       0.11405103       0.93753853 </v>
    <v>       0.88916275       0.44987916       0.43475321 </v>
    <v>       0.89183241       0.44714664       0.93961581 </v>
    <v>       0.89187422       0.77992693       0.43916873 </v>
    <v>       0.89251142       0.78067651       0.93862968 </v>
   </varray>
  </structure>
  <varray name="forces" >
   <v>       0.00867884      -0.00479342      -0.03715384 </v>
   <v>       0.06975614      -1.04910183       0.24695104 </v>
   <v>       0.01071006      -0.00636919      -0.04763138 </v>
   <v>       0.01620012       0.09712813      -0.06566195 </v>
   <v>       0.01884536       0.01377199       0.05051869 </v>
   <v>      -0.07343709      -0.06316934      -0.06161916 </v>
   <v>      -0.00886461      -0.02850381       0.05168594 </v>
   <v>       0.01431452      -0.02600431      -0.12345711 </v>
   <v>       0.00177500      -0.00359374      -0.05515218 </v>
   <v>      -0.06237827       0.03851839      -0.05023513 </v>
   <v>      -0.02404194       0.00924551       0.02034841 </v>
   <v>       0.93762027       0.46218211       0.24516117 </v>
   <v>       0.00544375      -0.00605411      -0.04273872 </v>
   <v>       0.03152930      -0.01951285      -0.09044474 </v>
   <v>      -0.01100391      -0.00250654      -0.03603728 </v>
   <v>       0.03145526       0.00054269      -0.12902304 </v>
   <v>      -0.00147274      -0.01409234      -0.05058994 </v>
   <v>      -0.05104172       0.03855295       0.21048554 </v>
   <v>       0.06085056      -0.03336419      -0.00754984 </v>
   <v>       0.09548905       0.01194646      -0.00279858 </v>
   <v>      -0.15210100      -0.13611217      -0.16613275 </v>
   <v>      -0.02395525      -0.01386132       0.12371160 </v>
   <v>      -0.00768931       0.00925155      -0.01565830 </v>
   <v>       0.01556885       0.03946009       0.12568849 </v>
   <v>      -0.02289484      -0.00164028      -0.01814046 </v>
   <v>       0.00387224       0.02892633       0.03630229 </v>
   <v>       0.00374100      -0.01805545      -0.07314265 </v>
   <v>       0.04789872      -0.01445867      -0.00667734 </v>
   <v>      -0.00178426      -0.00515513      -0.07559312 </v>
   <v>       0.04568985      -0.08085082      -0.00228580 </v>
   <v>       0.02757628       0.19871425      -0.16834700 </v>
   <v>      -0.03118604       0.02598010       0.02544360 </v>
   <v>       0.12520619      -0.08076490      -0.12585148 </v>
   <v>      -0.01718531      -0.00807404       0.03827441 </v>
   <v>       0.01353710      -0.00285994      -0.07467698 </v>
   <v>      -1.59325985       0.91778457       0.48373782 </v>
   <v>      -0.01837802       0.00864460      -0.08705216 </v>
   <v>       0.38934373      -0.22738363       0.58137797 </v>
   <v>       0.01304424       0.016<v>       0.00602747       0.01087936       0.01763508 </v>
   <v>      -0.00136616      -0.00302427      -0.01234191 </v>
   <v>       0.00858756       0.00615087      -0.00409916 </v>
   <v>       0.01620282       0.00504154      -0.02453760 </v>
   <v>       0.02944061      -0.00333847       0.00350534 </v>
   <v>      -0.00285957       0.00090359      -0.00675824 </v>
   <v>       0.02077655       0.00509675       0.00336707 </v>
   <v>       0.00288237      -0.01372805      -0.00694919 </v>
   <v>       0.04642872      -0.02558110      -0.00886881 </v>
   <v>      -0.00957858      -0.00829127       0.01117600 </v>
   <v>      -0.06907217      -0.01513764       0.04077705 </v>
   <v>      -0.00655144      -0.00385940       0.00807224 </v>
   <v>      -0.00380112       0.02113478       0.01035764 </v>
   <v>      -0.00819694      -0.00629699      -0.00374233 </v>
   <v>      -0.02263253      -0.00283845       0.00856342 </v>
   <v>      -0.00410959      -0.00317887      -0.00598383 </v>
   <v>      -0.00562973       0.00875089      -0.01612433 </v>
   <v>      -0.00390217      -0.00950305      -0.01018473 </v>
   <v>      -0.00662523       0.00574197      -0.01511264 </v>
   <v>      -0.00945148      -0.00583623      -0.01940719 </v>
   <v>      -0.01643065       0.07771194       0.04897942 </v>
   <v>      -0.00844728      -0.01562502       0.01830489 </v>
   <v>       0.04122254      -0.01403218       0.02780243 </v>
   <v>      -0.00605987      -0.00899024       0.00869658 </v>
   <v>      -0.00496457       0.00101166      -0.01849716 </v>
   <v>      -0.00518632      -0.00794577      -0.00794657 </v>
  </varray>
  <varray name="stress" >
   <v>     -21.65698147      -0.46251648       0.35920635 </v>
   <v>      -0.46251649     -19.55409570      -0.27530057 </v>
   <v>       0.35920646      -0.27530050       8.72435864 </v>
  </varray>
  <energy>
   <i name="e_fr_energy">   -646.41794771 </i>
   <i name="e_wo_entrp">   -646.41772055 </i>
   <i name="e_0_energy">     -0.00045432 </i>
  </energy>
  <time name="totalsc"> 1600.22 1589.59</time>
 </calculation>
09 </v>
  </varray>
  <varray name="stress" >
   <v>     -18.68353374       1.22626230       1.21451023 </v>
   <v>       1.22626236     -16.75579441      -0.70564647 </v>
   <v>       1.21451021      -0.70564651       7.13506429 </v>
  </varray>
  <energy>
   <i name="e_fr_energy">   -646.77399379 </i>
   <i name="e_wo_entrp">   -646.77291397 </i>
   <i name="e_0_energy">     -0.00215964 </i>
  </energy>
  <time name="totalsc"> 1601.20 1589.52</time>
 </calculation>
 <calculation>
  <scstep>
   <time name="total">  140.53  139.59</time>
   <energy>
    <i name="alphaZ">    290.88492991 </i>
    <i name="ewald"> -10757.46057732 </i>
    <i name="hartreedc">  -2803.12402543 </i>
    <i name="XCdc">   -126.36298165 </i>
    <i name="pawpsdc"> 149675.97065388 </i>
    <i name="pawaedc">-148883.22518179 </i>
    <i name="eentropy">     -0.00042154 </i>
    <i name="bandstr">   -254.29920803 </i>
    <i name="atom">  11348.91900202 </i>
    <i name="e_fr_energy">   -646.39105248 </i>
    <i name="e_wo_entrp">   -646.39063094 </i>
    <i name="e_0_energy">   -646.39084171 </i>
   </energy>
  </scstep>
  <scstep>
   <time name="total">  140.32  139.39</time>
   <energy>
    <i name="e_fr_energy">   -646.41450624 </i>
    <i name="e_wo_entrp">   -646.41401427 </i>
    <i name="e_0_energy">   -646.41426026 </i>
   </energy>
  </scstep>
  <scstep>
   <time name="total">  139.60  138.67</time>
   <energy>
    <i name="e_fr_energy">   -646.41765527 </i>
    <i name="e_wo_entrp">   -646.41718743 </i>
    <i name="e_0_energy">   -646.41742135 </i>
   </energy>
  </scstep>
  <scstep>
   <time name="total">  139.78  138.85</time>
   <energy>
    <i name="e_fr_energy">   -646.41809560 </i>
    <i name="e_wo_entrp">   -646.41759603 </i>
    <i name="e_0_energy">   -646.41784582 </i>
   </energy>
  </scstep>
  <scstep>
   <time name="total">  138.91  137.98</time>
   <energy>
    <i name="e_fr_energy">   -646.41819643 </i>
    <i name="e_wo_entrp">   -646.41770533 </i>
    <i name="e_0_energy">   -646.41795088 </i>
   </energy>
  </scstep>
  <scstep>
   <time name="total">  139.76  138.83</time>
   <energy>
    <i name="e_fr_energy">   -646.41824031 </i>
    <i name="e_wo_entrp">   -646.41773717 </i>
    <i name="e_0_energy">   -646.41798874 </i>
   </energy>
  </scstep>
  <scstep>
   <time name="total">  139.73  138.79</time>
   <energy>
    <i name="e_fr_energy">   -646.41825680 </i>
    <i name="e_wo_entrp">   -646.41775380 </i>
    <i name="e_0_energy">   -646.41800530 </i>
   </energy>
  </scstep>
  <scstep>
   <time name="total">  139.90  138.97</time>
   <energy>
    <i name="e_fr_energy">   -646.41826093 </i>
    <i name="e_wo_entrp">   -646.41775775 </i>
    <i name="e_0_energy">   -646.41800934 </i>
   </energy>
  </scstep>
  <scstep>
   <time name="total">  208.20  207.05</time>
   <energy>
    <i name="alphaZ">    290.88492991 </i>
    <i name="ewald"> -10757.46057732 </i>
    <i name="hartreedc">  -2803.03267913 </i>
    <i name="XCdc">   -126.36340709 </i>
    <i name="pawpsdc"> 149673.92266973 </i>
    <i name="pawaedc">-148881.17872857 </i>
    <i name="eentropy">     -0.00050364 </i>
    <i name="bandstr">   -254.41769914 </i>
    <i name="atom">  11348.91900202 </i>
    <i name="e_fr_energy">   -646.41826182 </i>
    <i name="e_wo_entrp">   -646.41775818 </i>
    <i name="e_0_energy">   -646.41801000 </i>
   </energy>
  </scstep>
  <structure>
   <crystal>
    <varray name="basis" >
     <v>       9.28720188       0.00000000       0.00000000 </v>
     <v>      -4.64360297       8.04295379       0.00000000 </v>
     <v>       0.00000000       0.00000000       9.90906906 </v>
    </varray>
    <i name="volume">    740.17312987 </i>
    <varray name="rec_basis" >
     <v>       0.10767506       0.06216624      -0.00000000 </v>
     <v>       0.00000000       0.12433243       0.00000000 </v>
     <v>       0.00000000      -0.00000000       0.10091765 </v>
    </varray>
   </crystal>
   <varray name="positions" >
    <v>       0.11444185       0.22440591       0.99723240 </v>
    <v>       0.11021962       0.55213525       0.50048714 </v>
    <v>       0.11425702       0.55837413       0.99780695 </v>
[...]
       <r>   -13.2050     0.0000     0.0000 </r>
       <r>   -13.1013     0.0000     0.0000 </r>
       <r>   -12.9976     0.0000     0.0000 </r>
       <r>   -12.8939     0.0000     0.0000 </r>
       <r>   -12.7902     0.0000     0.0000 </r>
       <r>   -12.6866     0.0000     0.0000 </r>
       <r>   -12.5829     0.0000     0.0000 </r>
       <r>   -12.4792     0.0000     0.0000 </r>
       <r>   -12.3755     0.0000     0.0000 </r>
       <r>   -12.2719     2.4021     0.2490 </r>
       <r>   -12.1682     0.0093     0.2500 </r>
       <r>   -12.0645     2.2015     0.4782 </r>
       <r>   -11.9608     9.3654     1.4492 </r>
       <r>   -11.8572     5.5089     2.0204 </r>
       <r>   -11.7535     9.4334     2.9984 </r>
       <r>   -11.6498    13.3588     4.3834 </r>
       <r>   -11.5461     5.8352     4.9884 </r>
       <r>   -11.4424     1.4143     5.1350 </r>
       <r>   -11.3388     3.8471     5.5339 </r>
       <r>   -11.2351     9.3217     6.5003 </r>
       <r>   -11.1314     7.2240     7.2493 </r>
       <r>   -11.0277    16.2815     8.9373 </r>
       <r>   -10.9241    35.1260    12.5791 </r>
       <r>   -10.8204    17.3003    14.3727 </r>
       <r>   -10.7167    18.6085    16.3020 </r>
       <r>   -10.6130     6.4418    16.9698 </r>
       <r>   -10.5094     3.8103    17.3649 </r>
       <r>   -10.4057    17.7341    19.2035 </r>
       <r>   -10.3020    27.1922    22.0227 </r>
       <r>   -10.1983    20.6583    24.1645 </r>
       <r>   -10.0946    54.0142    29.7645 </r>
       <r>    -9.9910    55.8636    35.5563 </r>
       <r>    -9.8873    14.0415    37.0121 </r>
       <r>    -9.7836    34.0836    40.5458 </r>
       <r>    -9.6799    41.2909    44.8267 </r>
       <r>    -9.5763    51.8313    50.2004 </r>
       <r>    -9.4726    48.4815    55.2268 </r>
       <r>    -9.3689    59.1635    61.3607 </r>
       <r>    -9.2652    33.5024    64.8341 </r>
       <r>    -9.1616    21.3301    67.0456 </r>
       <r>    -9.0579    10.7522    68.1603 </r>
       <r>    -8.9542    17.6135    69.9865 </r>
       <r>    -8.8505    19.4087    71.9987 </r>
       <r>    -8.7468     0.0126    72.0000 </r>
       <r>    -8.6432     0.0000    72.0000 </r>
       <r>    -8.5395     0.0000    72.0000 </r>
       <r>    -8.4358     0.0000    72.0000 </r>
       <r>    -8.3321     0.0000    72.0000 </r>
       <r>    -8.2285     0.0000    72.0000 </r>
       <r>    -8.1248     0.0000    72.0000 </r>
       <r>    -8.0211     0.0000    72.0000 </r>
       <r>    -7.9174     0.0000    72.0000 </r>
       <r>    -7.8137     0.0000    72.0000 </r>
       <r>    -7.7101     0.0000    72.0000 </r>
       <r>    -7.6064     0.0000    72.0000 </r>
       <r>    -7.5027     0.0000    72.0000 </r>
       <r>    -7.3990     0.0000    72.0000 </r>
       <r>    -7.2954     0.0000    72.0000 </r>
       <r>    -7.1917     0.0000    72.0000 </r>
       <r>    -7.0880     0.0000    72.0000 </r>
       <r>    -6.9843     0.0000    72.0000 </r>
       <r>    -6.8807     0.0000    72.0000 </r>
       <r>    -6.7770     0.0000    72.0000 </r>
       <r>    -6.6733     0.0000    72.0000 </r>
       <r>    -6.5696     0.0000    72.0000 </r>
       <r>    -6.4659     0.0000    72.0000 </r>
       <r>    -6.3623     0.0000    72.0000 </r>
       <r>    -6.2586     0.0000    72.0000 </r>
       <r>    -6.1549     0.0000    72.0000 </r>
       <r>    -6.0512     0.0000    72.0000 </r>
       <r>    -5.9476     0.0000    72.0000 </r>
       <r>    -5.8439     0.0000    72.0000 </r>
       <r>    -5.7402     0.0000    72.0000 </r>
       <r>    -5.6365     0.0000    72.0000 </r>
       <r>    -5.5329     0.0000    72.0000 </r>
       <r>    -5.4292     0.0000    72.0000 </r>
       <r>    -5.3255     0.0000    72.0000 </r>
       <r>    -5.2218     0.0000    72.0000 </r>
       <r>    -5.1181     0.0000    72.0000 </r>
       <r>    -5.0145     0.0000    72.0000 </r>
       <r>    -4.9108     0.0000    72.0000 </r>
       <r>    -4.8071     0.0000    72.0000 </r>
       <r>    -4.7034     0.0000    72.0000 </r>
       <r>    -4.5998     0.0000    72.0000 </r>
       <r>    -4.4961     0.0000    72.0000 </r>
       <r>    -4.3924     0.0000    72.0000 </r>
       <r>    -4.2887     0.0000    72.0000 </r>
       <r>    -4.1851     0.0000    72.0000 </r>
       <r>    -4.0814     0.0000    72.0000 </r>
       <r>    -3.9777     0.0000    72.0000 </r>
       <r>    -3.8740     0.0000    72.0000 </r>
       <r>    -3.7703     0.0000    72.0000 </r>
       <r>    -3.6667     0.0000    72.0000 </r>
       <r>    -3.5630     0.0000    72.0000 </r>
       <r>    -3.4593     0.0000    72.0000 </r>
       <r>    -3.3556     0.0000    72.0000 </r>
       <r>    -3.2520     0.0000    72.0000 </r>
       <r>    -3.1483     0.0000    72.0000 </r>
       <r>    -3.0446     0.0000    72.0000 </r>
       <r>    -2.9409     0.0000    72.0000 </r>
       <r>    -2.8373     0.0000    72.0000 </r>
       <r>    -2.7336     0.0000    72.0000 </r>
       <r>    -2.6299     0.0000    72.0000 </r>
       <r>    -2.5262     0.0000    72.0000 </r>
       <r>    -2.4225     0.0000    72.0000 </r>
       <r>    -2.3189     0.0000    72.0000 </r>
       <r>    -2.2152     0.0000    72.0000 </r>
       <r>    -2.1115     0.0000    72.0000 </r>
       <r>    -2.0078     3.4201    72.3546 </r>
       <r>    -1.9042    11.0641    73.5017 </r>
       <r>    -1.8005     2.4425    73.7549 </r>
       <r>    -1.6968     2.3640    74.0000 </r>
       <r>    -1.5931     0.0000    74.0000 </r>
       <r>    -1.4895     0.0011    74.0001 </r>
       <r>    -1.3858     5.5693    74.5775 </r>
       <r>    -1.2821    16.8190    76.3213 </r>
       <r>    -1.1784    12.8600    77.6546 </r>
       <r>    -1.0747    10.8113    78.7754 </r>
       <r>    -0.9711     2.6366    79.0488 </r>
       <r>    -0.8674    25.5221    81.6948 </r>
       <r>    -0.7637    55.2164    87.4195 </r>
       <r>    -0.6600    40.9492    91.6650 </r>
       <r>    -0.5564    30.9266    94.8714 </r>
       <r>    -0.4527    44.8290    99.5191 </r>
       <r>    -0.3490    37.9089   103.4494 </r>
       <r>    -0.2453    36.5372   107.2375 </r>
       <r>    -0.1417    39.3336   111.3155 </r>
       <r>    -0.0380    41.7049   115.6393 </r>
       <r>     0.0657    30.0228   118.7520 </r>
       <r>     0.1694    17.8216   120.5997 </r>
       <r>     0.2731    21.2787   122.8058 </r>
       <r>     0.3767    25.0351   125.4014 </r>
       <r>     0.4804     9.4040   126.3763 </r>
       <r>     0.5841    17.3862   128.1789 </r>
       <r>     0.6878    26.6526   130.9421 </r>
       <r>     0.7914    17.4628   132.7526 </r>
       <r>     0.8951     8.6144   133.6458 </r>
       <r>     0.9988    25.2185   136.2603 </r>
       <r>     1.1025    24.7679   138.8282 </r>
       <r>     1.2061    30.6769   142.0087 </r>
       <r>     1.3098    33.2623   145.4572 </r>
       <r>     1.4135    31.6508   148.7387 </r>
       <r>     1.5172    22.0911   151.0290 </r>
       <r>     1.6209    31.7422   154.3200 </r>
       <r>     1.7245    22.4209   156.6445 </r>
       <r>     1.8282    15.9593   158.2991 </r>
       <r>     1.9319    38.5811   162.2991 </r>
       <r>     2.0356    26.3008   165.0259 </r>
       <r>     2.1392    38.9561   169.0647 </r>
       <r>     2.2429    25.7984   171.7394 </r>
       <r>     2.3466    20.5456   173.8695 </r>
       <r>     2.4503    15.4224   175.4685 </r>
       <r>     2.5539    48.5571   180.5027 </r>
       <r>     2.6576    35.2384   184.1561 </r>
       <r>     2.7613    12.5338   185.4556 </r>
       <r>     2.8650    37.2982   189.3226 </r>
       <r>     2.9687    70.9135   196.6747 </r>
       <r>     3.0723    52.8376   202.1527 </r>
       <r>     3.1760    45.9259   206.9142 </r>
       <r>     3.2797    31.8418   210.2155 </r>
       <r>     3.3834    61.6196   216.6040 </r>
       <r>     3.4870    55.9685   222.4066 </r>
       <r>     3.5907    47.8829   227.3710 </r>
       <r>     3.6944    63.1607   233.9193 </r>
       <r>     3.7981    47.1751   238.8103 </r>
       <r>     3.9017    45.0690   243.4829 </r>
       <r>     4.0054    58.4433   249.5421 </r>
       <r>     4.1091    90.3113   258.9053 </r>
       <r>     4.2128    59.1368   265.0365 </r>
       <r>     4.3165    26.7159   267.8063 </r>
       <r>     4.4201    49.2202   272.9093 </r>
       <r>     4.5238    58.5649   278.9811 </r>
       <r>     4.6275    16.3528   280.6765 </r>
       <r>     4.7312    24.9338   283.2616 </r>
       <r>     4.8348     7.8513   284.0756 </r>
       <r>     4.9385     7.3546   284.8381 </r>
       <r>     5.0422    18.5983   286.7663 </r>
       <r>     5.1459    10.6426   287.8697 </r>
       <r>     5.2495     1.2570   288.0000 </r>
       <r>     5.3532     0.0000   288.0000 </r>
       <r>     5.4569     0.0000   288.0000 </r>
       <r>     5.5606     0.0000   288.0000 </r>
       <r>     5.6643     0.0000   288.0000 </r>
       <r>     5.7679     0.0000   288.0000 </r>
       <r>     5.8716     0.0000   288.0000 </r>
       <r>     5.9753     0.0000   288.0000 </r>
       <r>     6.0790     0.0000   288.0000 </r>
       <r>     6.1826     0.0000   288.0000 </r>
       <r>     6.2863     0.0000   288.0000 </r>
       <r>     6.3900     0.0000   288.0000 </r>
       <r>     6.4937     0.0000   288.0000 </r>
       <r>     6.5973     0.0000   288.0000 </r>
       <r>     6.7010     0.0000   288.0000 </r>
       <r>     6.8047     0.0000   288.0000 </r>
       <r>     6.9084     0.0000   288.0000 </r>
       <r>     7.0121     0.0000   288.0000 </r>
       <r>     7.1157     0.0000   288.0000 </r>
       <r>     7.2194     0.0000   288.0000 </r>
       <r>     7.3231     0.0000   288.0000 </r>
       <r>     7.4268     0.0000   288.0000 </r>
       <r>     7.5304     0.0000   288.0000 </r>
       <r>     7.6341     0.0000   288.0000 </r>
       <r>     7.7378     0.0000   288.0000 </r>
       <r>     7.8415     0.0000   288.0000 </r>
       <r>     7.9451     0.0000   288.0000 </r>
       <r>     8.0488     0.0000   288.0000 </r>
       <r>     8.1525     0.0000   288.0000 </r>
       <r>     8.2562     0.0000   288.0000 </r>
       <r>     8.3599     0.0000   288.0000 </r>
       <r>     8.4635     0.0000   288.0000 </r>
       <r>     8.5672     0.0000   288.0000 </r>
       <r>     8.6709     0.0000   288.0000 </r>
       <r>     8.7746     0.0000   288.0000 </r>
       <r>     8.8782     0.0000   288.0000 </r>
       <r>     8.9819     0.0000   288.0000 </r>
       <r>     9.0856     0.0000   288.0000 </r>
       <r>     9.1893     0.0000   288.0000 </r>
       <r>     9.2929     1.7903   288.1856 </r>
       <r>     9.3966     3.0324   288.5000 </r>
       <r>     9.5003    12.3327   289.7786 </r>
       <r>     9.6040     2.1353   290.0000 </r>
       <r>     9.7077     0.0000   290.0000 </r>
       <r>     9.8113     0.0000   290.0000 </r>
       <r>     9.9150     0.0000   290.0000 </r>
       <r>    10.0187     0.0000   290.0000 </r>
       <r>    10.1224     0.0000   290.0000 </r>
       <r>    10.2260     0.0000   290.0000 </r>
       <r>    10.3297     0.0000   290.0000 </r>
       <r>    10.4334     0.0000   290.0000 </r>
       <r>    10.5371     0.0000   290.0000 </r>
       <r>    10.6407     0.0000   290.0000 </r>
       <r>    10.7444     0.0000   290.0000 </r>
       <r>    10.8481     0.0000   290.0000 </r>
       <r>    10.9518     0.0000   290.0000 </r>
       <r>    11.0555     0.0000   290.0000 </r>
       <r>    11.1591     0.0000   290.0000 </r>
       <r>    11.2628     1.2260   290.1271 </r>
       <r>    11.3665     1.1853   290.2500 </r>
       <r>    11.4702     0.0000   290.2500 </r>
       <r>    11.5738     0.0000   290.2500 </r>
       <r>    11.6775     0.0000   290.2500 </r>
       <r>    11.7812     0.0004   290.2500 </r>
       <r>    11.8849     7.1264   290.9889 </r>
       <r>    11.9885     3.2744   291.3284 </r>
       <r>    12.0922    14.2422   292.8050 </r>
       <r>    12.1959     6.2735   293.4554 </r>
       <r>    12.2996     6.5807   294.1376 </r>
       <r>    12.4033     3.3206   294.4819 </r>
       <r>    12.5069    14.1226   295.9461 </r>
       <r>    12.6106    24.1319   298.4480 </r>
       <r>    12.7143    49.1883   303.5477 </r>
       <r>    12.8180    50.8794   308.8228 </r>
       <r>    12.9216    24.9548   311.4100 </r>
       <r>    13.0253    39.3888   315.4937 </r>
       <r>    13.1290    24.4245   318.0260 </r>
       <r>    13.2327    18.1539   319.9081 </r>
       <r>    13.3363    20.8140   322.0660 </r>
       <r>    13.4400    17.0185   323.8305 </r>
       <r>    13.5437     9.1739   324.7816 </r>
       <r>    13.6474    19.4296   326.7960 </r>
       <r>    13.7511    42.5965   331.2123 </r>
       <r>    13.8547    36.4006   334.9862 </r>
       <r>    13.9584    18.6250   336.9172 </r>
       <r>    14.0621    29.3909   339.9643 </r>
       <r>    14.1658    38.1496   343.9196 </r>
       <r>    14.2694    15.6684   345.5440 </r>
       <r>    14.3731    28.6973   348.5193 </r>
       <r>    14.4768    17.8084   350.3656 </r>
       <r>    14.5805    22.0648   352.6532 </r>
       <r>    14.6841    12.4297   353.9419 </r>
       <r>    14.7878    18.1194   355.8205 </r>
       <r>    14.8915     3.0828   356.1401 </r>
       <r>    14.9952    21.0078   358.3181 </r>
       <r>    15.0989    11.3935   359.4993 </r>
       <r>    15.2025     6.9806   360.2231 </r>
       <r>    15.3062    12.3652   361.5050 </r>
       <r>    15.4099     7.6105   362.2941 </r>
       <r>    15.5136    17.2721   364.0848 </r>
       <r>    15.6172     5.3205   364.6364 </r>
       <r>    15.7209     8.3946   365.5067 </r>
       <r>    15.8246    11.6615   366.7158 </r>
       <r>    15.9283     5.2500   367.2601 </r>
       <r>    16.0319     7.1368   368.0000 </r>
       <r>    16.1356     0.0000   368.0000 </r>
       <r>    16.2393     0.0000   368.0000 </r>
       <r>    16.3430     0.0000   368.0000 </r>
       <r>    16.4467     0.0000   368.0000 </r>
       <r>    16.5503     0.0000   368.0000 </r>
       <r>    16.6540     0.0000   368.0000 </r>
       <r>    16.7577     0.0000   368.0000 </r>
       <r>    16.8614     0.0000   368.0000 </r>
       <r>    16.9650     0.0000   368.0000 </r>
       <r>    17.0687     0.0000   368.0000 </r>
       <r>    17.1724     0.0000   368.0000 </r>
       <r>    17.2761     0.0000   368.0000 </r>
       <r>    17.3797     0.0000   368.0000 </r>
      </set>
     </set>
    </array>
   </total>
  </dos>
 </calculation>
 <structure name="finalpos" >
  <crystal>
   <varray name="basis" >
    <v>       9.28720188       0.00000000       0.00000000 </v>
    <v>      -4.64360297       8.04295379       0.00000000 </v>
    <v>       0.00000000       0.00000000       9.90906906 </v>
   </varray>
   <i name="volume">    740.17312987 </i>
   <varray name="rec_basis" >
    <v>       0.10767506       0.06216624      -0.00000000 </v>
    <v>       0.00000000       0.12433243       0.00000000 </v>
    <v>       0.00000000      -0.00000000       0.10091765 </v>
   </varray>
  </crystal>
  <varray name="positions" >
   <v>       0.11474110       0.22440619       0.99655316 </v>
   <v>       0.10170933       0.53276770       0.50333702 </v>
   <v>       0.11448780       0.55869434       0.99714322 </v>
   <v>       0.11468352       0.89370339       0.49729731 </v>
   <v>       0.11472566       0.89223155       0.99924767 </v>
   <v>       0.44557228       0.22456731       0.49728993 </v>
   <v>       0.44697709       0.22446084       0.99924880 </v>
   <v>       0.45064649       0.55805905       0.49670177 </v>
   <v>       0.44815587       0.55854167       0.99642547 </v>
   <v>       0.44711595       0.89212758       0.49775171 </v>
   <v>       0.44735717       0.89183001       0.99897845 </v>
   <v>       0.80652994       0.23755122       0.50335572 </v>
   <v>       0.78049951       0.22468852       0.99712573 </v>
   <v>       0.78075133       0.55850355       0.49715033 </v>
   <v>       0.78057940       0.55864382       0.99716141 </v>
   <v>       0.78118693       0.88860758       0.49670959 </v>
   <v>       0.78064901       0.89105292       0.99641326 </v>
   <v>       0.22342352       0.11558690       0.25302381 </v>
   <v>       0.22744555       0.11200860       0.74660826 </v>
   <v>       0.22755737       0.44648691       0.24404187 </v>
   <v>       0.22369265       0.44741422       0.74702686 </v>
   <v>       0.22470918       0.77896010       0.25105068 </v>
   <v>       0.22605174       0.78217895       0.74836186 </v>
   <v>       0.56006934       0.11432365       0.25105899 </v>
   <v>       0.55726656       0.11335468       0.74835258 </v>
   <v>       0.55888105       0.44732092       0.24838326 </v>
   <v>       0.55848060       0.44657524       0.74727034 </v>
   <v>       0.55873814       0.78028944       0.24777641 </v>
   <v>       0.55841302       0.78101485       0.74686272 </v>
   <v>       0.89250297       0.11146409       0.24406758 </v>
   <v>       0.89206422       0.11576092       0.74697274 </v>
   <v>       0.89113536       0.44790473       0.24603778 </v>
   <v>       0.89260241       0.44683343       0.74844227 </v>
   <v>       0.89171686       0.78017661       0.24838964 </v>
   <v>       0.89283570       0.78094062       0.74726442 </v>
   <v>       0.08887112       0.25041047       0.51003504 </v>
   <v>       0.11421992       0.22476182       0.18545804 </v>
   <v>       0.11752509       0.22199782       0.68811545 </v>
   <v>       0.11487751       0.55765084       0.18780879 </v>
   <v>       0.11589764       0.56249829       0.69485884 </v>
   <v>       0.11455588       0.89233423       0.19047588 </v>
   <v>       0.11420519       0.89127062       0.68910668 </v>
   <v>       0.44668648       0.22447280       0.19047747 </v>
   <v>       0.44816863       0.22520324       0.68910101 </v>
   <v>       0.44948269       0.55928215       0.18590472 </v>
   <v>       0.44695961       0.55801681       0.68832057 </v>
   <v>       0.44759925       0.89142489       0.18968638 </v>
   <v>       0.44757210       0.89181915       0.68962353 </v>
   <v>       0.78139533       0.22417725       0.18780221 </v>
   <v>       0.77695680       0.22355080       0.69487457 </v>
   <v>       0.78005347       0.55903872       0.18643924 </v>
   <v>       0.78097126       0.55847263       0.68919221 </v>
   <v>       0.77975747       0.88956079       0.18590071 </v>
   <v>       0.78142099       0.89246897       0.68831089 </v>
   <v>       0.21795988       0.12130860       0.44408817 </v>
   <v>       0.22578045       0.11343267       0.93830477 </v>
   <v>       0.23681456       0.44443960       0.43093561 </v>
   <v>       0.22541393       0.44658357       0.93784845 </v>
   <v>       0.22320100       0.77587993       0.44125434 </v>
   <v>       0.22579159       0.78172060       0.94020034 </v>
   <v>       0.56336654       0.11602140       0.44126273 </v>
   <v>       0.55749428       0.11339918       0.94019420 </v>
   <v>       0.56006184       0.44757484       0.43901890 </v>
   <v>       0.55833292       0.44655863       0.93819434 </v>
   <v>       0.55907579       0.78018224       0.43893710 </v>
   <v>       0.55844243       0.78077572       0.93770263 </v>
   <v>       0.89478915       0.10240945       0.43094874 </v>
   <v>       0.89259721       0.11377203       0.93779929 </v>
   <v>       0.88669769       0.45248074       0.43178435 </v>
   <v>       0.89176207       0.44742383       0.93968075 </v>
   <v>       0.89165284       0.77918964       0.43902616 </v>
   <v>       0.89264449       0.78090150       0.93818248 </v>
  </varray>
 </structure>
</modeling>
402 </v>
   <v>       0.89154495       0.44764046       0.93970296 </v>
   <v>       0.89185980       0.77940250       0.43863638 </v>
   <v>       0.89243787       0.78110032       0.93768910 </v>
  </varray>
 </structure>
</modeling>
