       N       E                     dE             d eps       ncg     rms          rms(c)
DAV:   1    -0.642052950917E+03   -0.64205E+03   -0.16531E-06 35616   0.335E-03    0.636E-03
DAV:   2    -0.642052950926E+03   -0.93611E-08   -0.23204E-07 38752   0.124E-03    0.579E-03
DAV:   3    -0.642052950911E+03    0.15359E-07   -0.38103E-08 39232   0.561E-04    0.451E-03
DAV:   4    -0.642052950896E+03    0.15184E-07   -0.12967E-08 44064   0.352E-04    0.310E-03
DAV:   5    -0.642052950886E+03    0.93729E-08   -0.48934E-09 39040   0.243E-04    0.208E-03
DAV:   6    -0.642052950879E+03    0.73635E-08   -0.16149E-09 39776   0.167E-04    0.120E-03
DAV:   7    -0.642052950875E+03    0.37295E-08   -0.82875E-10 29696   0.148E-04    0.698E-04
DAV:   8    -0.642052950873E+03    0.21810E-08   -0.49581E-10 24192   0.147E-04
   1 F= -.64205295E+03 E0= -.64205295E+03  d E =-.203412E-31
