 vasp.5.4.1 24Jun15 (build Oct 18 2022 00:58:31) complex                         
 executed on        GCC_CrayMPICH date 2024.09.09  19:33:17
 running on 1024 total cores
 distrk:  each k-point on  128 cores,    8 groups
 distr:  one band on NCORES_PER_BAND=   4 cores,   32 groups


--------------------------------------------------------------------------------------------------------


 INCAR:
 POTCAR:    PAW_PBE Al 04Jan2001                  
 POTCAR:    PAW_PBE N 08Apr2002                   

 ----------------------------------------------------------------------------- 
|                                                                             |
|           W    W    AA    RRRRR   N    N  II  N    N   GGGG   !!!           |
|           W    W   A  A   R    R  NN   N  II  NN   N  G    G  !!!           |
|           W    W  A    A  R    R  N N  N  II  N N  N  G       !!!           |
|           W WW W  AAAAAA  RRRRR   N  N N  II  N  N N  G  GGG   !            |
|           WW  WW  A    A  R   R   N   NN  II  N   NN  G    G                |
|           W    W  A    A  R    R  N    N  II  N    N   GGGG   !!!           |
|                                                                             |
|      For optimal performance we recommend to set                            |
|        NCORE= 4 - approx SQRT( number of cores)                             |
|      NCORE specifies how many cores store one orbital (NPAR=cpu/NCORE).     |
|      This setting can  greatly improve the performance of VASP for DFT.     |
|      The default, NPAR=number of cores might be grossly inefficient         |
|      on modern multi-core architectures or massively parallel machines.     |
|      Do your own testing !!!!                                               |
|      Unfortunately you need to use the default for GW and RPA calculations. |
|      (for HF NCORE is supported but not extensively tested yet)             |
|                                                                             |
 ----------------------------------------------------------------------------- 


 ----------------------------------------------------------------------------- 
|                                                                             |
|           W    W    AA    RRRRR   N    N  II  N    N   GGGG   !!!           |
|           W    W   A  A   R    R  NN   N  II  NN   N  G    G  !!!           |
|           W    W  A    A  R    R  N N  N  II  N N  N  G       !!!           |
|           W WW W  AAAAAA  RRRRR   N  N N  II  N  N N  G  GGG   !            |
|           WW  WW  A    A  R   R   N   NN  II  N   NN  G    G                |
|           W    W  A    A  R    R  N    N  II  N    N   GGGG   !!!           |
|                                                                             |
|      You have enabled k-point parallelism (KPAR>1).                         |
|      This developmental code was originally  written by Paul Kent at ORNL,  |
|      and carefully double checked in Vienna.                                |
|      GW as well as linear response parallelism added by Martijn Marsman     |
|      and Georg Kresse.                                                      |
|      Carefully verify results versus KPAR=1.                                |
|      Report problems to Paul Kent and Vienna.                               |
|                                                                             |
 ----------------------------------------------------------------------------- 

 POTCAR:    PAW_PBE Al 04Jan2001                  
   VRHFIN =Al: s2p1                                                             
   LEXCH  = PE                                                                  
   EATOM  =    53.5387 eV,    3.9350 Ry                                         
                                                                                
   TITEL  = PAW_PBE Al 04Jan2001                                                
   LULTRA =        F    use ultrasoft PP ?                                      
   IUNSCR =        1    unscreen: 0-lin 1-nonlin 2-no                           
   RPACOR =    1.500    partial core radius                                     
   POMASS =   26.981; ZVAL   =    3.000    mass and valenz                      
   RCORE  =    1.900    outmost cutoff radius                                   
   RWIGS  =    2.650; RWIGS  =    1.402    wigner-seitz radius (au A)           
   ENMAX  =  240.300; ENMIN  =  180.225 eV                                      
   ICORE  =        2    local potential                                         
   LCOR   =        T    correct aug charges                                     
   LPAW   =        T    paw PP                                                  
   EAUG   =  291.052                                                            
   DEXC   =    0.000                                                            
   RMAX   =    1.939    core radius for proj-oper                               
   RAUG   =    1.300    factor for augmentation sphere                          
   RDEP   =    1.966    radius for radial grids                                 
   RDEPT  =    1.856    core radius for aug-charge                              
                                                                                
   Atomic configuration                                                         
    6 entries                                                                   
     n  l   j            E        occ.                                          
     1  0  0.50     -1511.1048   2.0000                                         
     2  0  0.50      -108.1629   2.0000                                         
     2  1  1.50       -69.6402   6.0000                                         
     3  0  0.50        -7.7528   2.0000                                         
     3  1  1.50        -2.7121   1.0000                                         
     3  2  2.50        -2.7212   0.0000                                         
   Description                                                                  
     l       E           TYP  RCUT    TYP  RCUT                                 
     0     -7.7528455     23  1.900                                             
     0     -3.3096929     23  1.900                                             
     1     -2.7120682     23  1.900                                             
     1     13.6058260     23  1.900                                             
     2     -2.7211652      7  1.900                                             
  local pseudopotential read in
  partial core-charges read in
  partial kinetic energy density read in
  atomic valenz-charges read in
  non local Contribution for L=           0  read in
    real space projection operators read in
  non local Contribution for L=           0  read in
    real space projection operators read in
  non local Contribution for L=           1  read in
    real space projection operators read in
  non local Contribution for L=           1  read in
    real space projection operators read in
    PAW grid and wavefunctions read in

   number of l-projection  operators is LMAX  =           4
   number of lm-projection operators is LMMAX =           8

 POTCAR:    PAW_PBE N 08Apr2002                   
   VRHFIN =N: s2p3                                                              
   LEXCH  = PE                                                                  
   EATOM  =   264.5486 eV,   19.4438 Ry                                         
                                                                                
   TITEL  = PAW_PBE N 08Apr2002                                                 
   LULTRA =        F    use ultrasoft PP ?                                      
   IUNSCR =        1    unscreen: 0-lin 1-nonlin 2-no                           
   RPACOR =    1.200    partial core radius                                     
   POMASS =   14.001; ZVAL   =    5.000    mass and valenz                      
   RCORE  =    1.500    outmost cutoff radius                                   
   RWIGS  =    1.400; RWIGS  =    0.741    wigner-seitz radius (au A)           
   ENMAX  =  400.000; ENMIN  =  300.000 eV                                      
   ICORE  =        2    local potential                                         
   LCOR   =        T    correct aug charges                                     
   LPAW   =        T    paw PP                                                  
   EAUG   =  627.112                                                            
   DEXC   =    0.000                                                            
   RMAX   =    1.529    core radius for proj-oper                               
   RAUG   =    1.300    factor for augmentation sphere                          
   RDEP   =    1.514    radius for radial grids                                 
   RDEPT  =    1.338    core radius for aug-charge                              
                                                                                
   Atomic configuration                                                         
    4 entries                                                                   
     n  l   j            E        occ.                                          
     1  0  0.50      -384.7179   2.0000                                         
     2  0  0.50       -18.5828   2.0000                                         
     2  1  0.50        -7.0898   3.0000                                         
     3  2  1.50        -6.8029   0.0000                                         
   Description                                                                  
     l       E           TYP  RCUT    TYP  RCUT                                 
     0    -18.5828119     23  1.200                                             
     0    -13.5018863     23  1.200                                             
     1     -7.0897853     23  1.500                                             
     1      9.5240782     23  1.500                                             
     2     -6.8029130      7  1.500                                             
  local pseudopotential read in
  partial core-charges read in
  partial kinetic energy density read in
  atomic valenz-charges read in
  non local Contribution for L=           0  read in
    real space projection operators read in
  non local Contribution for L=           0  read in
    real space projection operators read in
  non local Contribution for L=           1  read in
    real space projection operators read in
  non local Contribution for L=           1  read in
    real space projection operators read in
    PAW grid and wavefunctions read in

   number of l-projection  operators is LMAX  =           4
   number of lm-projection operators is LMMAX =           8

 Optimization of the real space projectors (new method)

 maximal supplied QI-value         = 19.84
 optimisation between [QCUT,QGAM] = [ 11.31, 22.82] = [ 35.82,145.81] Ry 
 Optimized for a Real-space Cutoff    1.07 Angstroem

   l    n(q)    QCUT    max X(q) W(low)/X(q) W(high)/X(q)  e(spline) 
   0      7    11.310   176.870    0.43E-03    0.33E-03    0.78E-07
   0      7    11.310   105.762    0.41E-03    0.33E-03    0.76E-07
   1      7    11.310    55.370    0.40E-03    0.29E-03    0.65E-07
   1      7    11.310    20.208    0.38E-03    0.25E-03    0.60E-07
 Optimization of the real space projectors (new method)

 maximal supplied QI-value         = 25.13
 optimisation between [QCUT,QGAM] = [ 11.31, 22.87] = [ 35.82,146.48] Ry 
 Optimized for a Real-space Cutoff    1.27 Angstroem

   l    n(q)    QCUT    max X(q) W(low)/X(q) W(high)/X(q)  e(spline) 
   0      9    11.310    79.467    0.75E-04    0.16E-03    0.36E-06
   0      9    11.310    66.151    0.74E-04    0.16E-03    0.36E-06
   1      8    11.310    17.416    0.35E-03    0.12E-03    0.95E-06
   1      8    11.310    12.382    0.37E-03    0.13E-03    0.98E-06
  PAW_PBE Al 04Jan2001                  :
 energy of atom  1       EATOM=  -53.5387
 kinetic energy error for atom=    0.0003 (will be added to EATOM!!)
  PAW_PBE N 08Apr2002                   :
 energy of atom  2       EATOM= -264.5486
 kinetic energy error for atom=    0.0138 (will be added to EATOM!!)


 POSCAR: Al2 N2                                  
  positions in direct lattice
  velocities in cartesian coordinates
 exchange correlation table for  LEXCH =        8
   RHO(1)=    0.500       N(1)  =     2000
   RHO(2)=  100.500       N(2)  =     4000



--------------------------------------------------------------------------------------------------------


 ion  position               nearest neighbor table
   1  0.667  0.333  0.896-  71 1.93  63 1.93  65 1.93  15 2.21  17 2.22   9 2.22  29 2.36  35 2.37
                            27 2.37
   2  0.111  0.222  0.503-  68 1.86  56 1.86  39 1.89  58 1.89  23 3.01  32 3.03  21 3.03  33 3.03
                            20 3.03   8 3.06  14 3.06   6 3.09  18 3.09  22 3.10  10 3.10   4 3.10
   3  0.111  0.223  0.998-  59 1.88  57 1.88  69 1.88  38 1.89  33 3.04  21 3.04  22 3.05  23 3.06
                            15 3.07   9 3.07  20 3.08  32 3.08   5 3.09  11 3.09  19 3.10   7 3.10
   4  0.113  0.556  0.497-  41 1.86  70 1.87  60 1.88  58 1.88  35 2.98  34 3.03  25 3.05  23 3.05
                            22 3.05  24 3.05  12 3.08  10 3.08   6 3.10   2 3.10  14 3.11  16 3.11
   5  0.115  0.557  0.996-  71 1.82  61 1.86  59 1.86  40 1.91  23 3.03  25 3.03  13 3.04  11 3.04
                            24 3.06  22 3.06   3 3.09   7 3.09  34 3.11  17 3.13  15 3.13  35 3.23
   6  0.111  0.889  0.503-  72 1.86  56 1.86  43 1.89  60 1.89  25 3.02  36 3.03  20 3.03  37 3.03
                            21 3.03   8 3.06  16 3.06  18 3.09   2 3.09  24 3.10  12 3.10   4 3.10
   7  0.111  0.889  0.998-  61 1.88  73 1.88  57 1.88  42 1.89  37 3.04  21 3.04  24 3.05  25 3.06
                             9 3.07  17 3.07  36 3.08  20 3.08  13 3.09   5 3.09  19 3.10   3 3.10
   8  0.439  0.219  0.489-  45 1.83  56 1.87  64 1.89  62 1.89  20 2.96  26 2.98  28 2.98  27 2.99
                            29 2.99   2 3.06   6 3.06  10 3.11  12 3.11  21 3.11  16 3.17  14 3.18
   9  0.439  0.219  0.022-  44 1.83  57 1.89  63 2.07  65 2.07   1 2.22  26 2.90  28 2.90  20 2.92
                             7 3.07   3 3.07  13 3.13  11 3.13  15 3.17  17 3.18  21 3.20
  10  0.444  0.556  0.497-  47 1.86  64 1.87  58 1.88  66 1.88  29 2.99  28 3.03  23 3.05  31 3.05
                            22 3.05  30 3.05   4 3.08  12 3.08   2 3.10  18 3.10  16 3.11   8 3.11
  11  0.443  0.557  0.996-  65 1.82  59 1.86  67 1.86  46 1.91  23 3.03  31 3.03   5 3.04  13 3.04
                            22 3.06  30 3.06   3 3.09  19 3.09  28 3.10  17 3.13   9 3.13  29 3.23
  12  0.444  0.887  0.497-  49 1.86  62 1.87  60 1.88  66 1.88  27 2.98  26 3.03  25 3.05  31 3.05
                            30 3.05  24 3.05   4 3.08  10 3.08   6 3.10  18 3.10  14 3.11   8 3.11
  13  0.443  0.885  0.996-  63 1.82  61 1.86  67 1.86  48 1.91  31 3.03  25 3.03   5 3.04  11 3.04
                            24 3.06  30 3.06  19 3.09   7 3.09  26 3.11   9 3.13  15 3.13  27 3.23
  14  0.781  0.219  0.489-  51 1.83  68 1.87  62 1.89  70 1.89  32 2.96  26 2.98  34 2.98  27 2.99
                            35 2.99   2 3.06  18 3.06   4 3.11  12 3.11  33 3.11   8 3.18  16 3.18
  15  0.780  0.220  0.023-  50 1.83  69 1.90  63 2.08  71 2.08   1 2.21  26 2.90  34 2.90  32 2.92
                             3 3.07  19 3.07   5 3.13  13 3.13   9 3.17  17 3.17  33 3.21
  16  0.781  0.561  0.489-  53 1.83  72 1.87  64 1.89  70 1.89  36 2.96  34 2.98  28 2.98  35 2.99
                            29 2.99  18 3.06   6 3.06  10 3.11   4 3.11  37 3.11   8 3.17  14 3.18
  17  0.781  0.561  0.022-  52 1.83  73 1.89  71 2.07  65 2.07   1 2.22  34 2.90  28 2.90  36 2.92
                             7 3.07  19 3.07   5 3.13  11 3.13  15 3.17   9 3.18  37 3.20
  18  0.778  0.889  0.503-  68 1.86  72 1.86  55 1.89  66 1.89  31 3.01  32 3.03  37 3.03  33 3.03
                            36 3.03  16 3.06  14 3.06   6 3.09   2 3.09  30 3.10  10 3.10  12 3.10
  19  0.777  0.889  0.998-  67 1.88  73 1.88  69 1.88  54 1.89  33 3.04  37 3.04  30 3.05  31 3.06
                            15 3.07  17 3.07  36 3.08  32 3.08  13 3.09  11 3.09   3 3.10   7 3.10
  20  0.214  0.107  0.253-  44 1.84  56 1.85  38 1.87  42 1.87   9 2.92   8 2.96  32 2.97  36 2.98
                             6 3.03   2 3.03   3 3.08   7 3.08  22 3.09  24 3.09  26 3.16  28 3.16
  21  0.223  0.112  0.750-  45 1.82  43 1.88  39 1.88  57 1.92   2 3.03   6 3.03   7 3.04   3 3.04
                            27 3.09  29 3.10  25 3.10  23 3.10  37 3.11  33 3.11   8 3.11   9 3.20
  22  0.222  0.444  0.247-  38 1.88  46 1.88  40 1.88  58 1.89   3 3.05   4 3.05  10 3.05  11 3.06
                             5 3.06  28 3.09  34 3.09  32 3.09  20 3.09   2 3.10  24 3.10  30 3.11
  23  0.223  0.445  0.747-  39 1.87  41 1.88  47 1.88  59 1.90   2 3.01   5 3.03  11 3.03  10 3.05
                             4 3.05   3 3.06  31 3.08  25 3.08  21 3.10  33 3.10  35 3.17  29 3.17
  24  0.222  0.778  0.247-  42 1.88  48 1.88  40 1.88  60 1.89   7 3.05  12 3.05   4 3.05  13 3.06
                             5 3.06  26 3.09  34 3.09  36 3.09  20 3.09   6 3.10  30 3.10  22 3.10
  25  0.223  0.777  0.747-  43 1.87  49 1.88  41 1.88  61 1.90   6 3.02  13 3.03   5 3.03  12 3.05
                             4 3.05   7 3.06  31 3.08  23 3.08  37 3.10  21 3.10  27 3.16  35 3.16
  26  0.555  0.110  0.251-  62 1.86  50 1.88  44 1.88  48 1.88  15 2.90   9 2.90  14 2.98   8 2.98
                            12 3.03  30 3.09  24 3.09  13 3.11  34 3.11  28 3.11  20 3.16  32 3.16
  27  0.560  0.120  0.731-  45 1.91  51 1.91  49 1.93  63 1.98   1 2.37  29 2.96  35 2.97  12 2.98
                             8 2.99  14 2.99  21 3.09  33 3.10  25 3.16  31 3.17  13 3.23
  28  0.555  0.445  0.251-  64 1.86  52 1.88  44 1.88  46 1.88  17 2.90   9 2.90  16 2.98   8 2.98
                            10 3.03  22 3.09  30 3.09  11 3.10  34 3.11  26 3.11  20 3.16  36 3.16
  29  0.560  0.440  0.732-  53 1.91  45 1.91  47 1.93  65 1.98   1 2.36  35 2.96  27 2.96  16 2.99
                             8 2.99  10 2.99  21 3.10  37 3.10  23 3.17  31 3.17  11 3.23
  30  0.556  0.778  0.247-  54 1.88  46 1.88  48 1.88  66 1.89  19 3.05  12 3.05  10 3.05  11 3.06
                            13 3.06  28 3.09  26 3.09  32 3.09  36 3.09  18 3.10  24 3.10  22 3.11
  31  0.555  0.777  0.747-  55 1.87  49 1.88  47 1.88  67 1.90  18 3.01  13 3.03  11 3.03  10 3.05
                            12 3.05  19 3.06  23 3.08  25 3.08  37 3.10  33 3.10  27 3.17  29 3.17
  32  0.893  0.107  0.253-  50 1.84  68 1.85  38 1.87  54 1.87  15 2.92  14 2.96  20 2.97  36 2.97
                             2 3.03  18 3.03   3 3.08  19 3.08  22 3.09  30 3.09  26 3.16  34 3.16
  33  0.888  0.112  0.750-  51 1.82  39 1.88  55 1.88  69 1.92   2 3.03  18 3.03   3 3.04  19 3.04
                            27 3.10  35 3.10  23 3.10  31 3.10  21 3.11  37 3.11  14 3.11  15 3.21
  34  0.890  0.445  0.251-  70 1.86  50 1.88  52 1.88  40 1.88  15 2.90  17 2.90  14 2.98  16 2.98
                             4 3.03  22 3.09  24 3.09   5 3.11  26 3.11  28 3.11  36 3.16  32 3.16
  35  0.880  0.440  0.731-  53 1.91  51 1.91  41 1.93  71 1.98   1 2.37  29 2.96  27 2.97   4 2.98
                            16 2.99  14 2.99  37 3.09  33 3.10  25 3.16  23 3.17   5 3.23
  36  0.893  0.786  0.253-  52 1.84  72 1.85  54 1.87  42 1.87  17 2.92  16 2.96  32 2.97  20 2.98
                             6 3.03  18 3.03  19 3.08   7 3.08  30 3.09  24 3.09  34 3.16  28 3.16
  37  0.888  0.777  0.750-  53 1.82  43 1.88  55 1.88  73 1.92  18 3.03   6 3.03   7 3.04  19 3.04
                            35 3.09  29 3.10  25 3.10  31 3.10  21 3.11  33 3.11  16 3.11  17 3.20
  38  0.111  0.222  0.188-  20 1.87  32 1.87  22 1.88   3 1.89
  39  0.111  0.222  0.694-  23 1.87  33 1.88  21 1.88   2 1.89
  40  0.111  0.556  0.188-  34 1.88  24 1.88  22 1.88   5 1.91
  41  0.112  0.556  0.685-   4 1.86  25 1.88  23 1.88  35 1.93
  42  0.111  0.889  0.188-  36 1.87  20 1.87  24 1.88   7 1.89
  43  0.111  0.889  0.693-  25 1.87  37 1.88  21 1.88   6 1.89
  44  0.435  0.218  0.207-   9 1.83  20 1.84  28 1.88  26 1.88
  45  0.429  0.214  0.673-  21 1.82   8 1.83  27 1.91  29 1.91
  46  0.444  0.556  0.188-  22 1.88  30 1.88  28 1.88  11 1.91
  47  0.444  0.556  0.685-  10 1.86  23 1.88  31 1.88  29 1.93
  48  0.444  0.889  0.188-  26 1.88  24 1.88  30 1.88  13 1.91
  49  0.444  0.888  0.685-  12 1.86  25 1.88  31 1.88  27 1.93
  50  0.783  0.217  0.207-  15 1.83  32 1.84  26 1.88  34 1.88
  51  0.785  0.215  0.673-  33 1.82  14 1.83  27 1.91  35 1.91
  52  0.782  0.565  0.207-  17 1.83  36 1.84  28 1.88  34 1.88
  53  0.786  0.571  0.673-  37 1.82  16 1.83  35 1.91  29 1.91
  54  0.778  0.889  0.188-  36 1.87  32 1.87  30 1.88  19 1.89
  55  0.778  0.889  0.694-  31 1.87  33 1.88  37 1.88  18 1.89
  56  0.215  0.107  0.439-  20 1.85   6 1.86   2 1.86   8 1.87
  57  0.224  0.112  0.943-   7 1.88   3 1.88   9 1.89  21 1.92
  58  0.221  0.443  0.438-   4 1.88  10 1.88  22 1.89   2 1.89
  59  0.222  0.444  0.939-  11 1.86   5 1.86   3 1.88  23 1.90
  60  0.221  0.779  0.438-  12 1.88   4 1.88  24 1.89   6 1.89
  61  0.222  0.778  0.939-  13 1.86   5 1.86   7 1.88  25 1.90
  62  0.554  0.109  0.439-  26 1.86  12 1.87   8 1.89  14 1.89
  63  0.548  0.097  0.930-  13 1.82   1 1.93  27 1.98   9 2.07  15 2.08
  64  0.555  0.445  0.439-  28 1.86  10 1.87  16 1.89   8 1.89
  65  0.549  0.451  0.931-  11 1.82   1 1.93  29 1.98  17 2.07   9 2.07
  66  0.557  0.779  0.438-  12 1.88  10 1.88  30 1.89  18 1.89
  67  0.556  0.778  0.939-  11 1.86  13 1.86  19 1.88  31 1.90
  68  0.893  0.107  0.440-  32 1.85   2 1.86  18 1.86  14 1.87
  69  0.888  0.112  0.944-   3 1.88  19 1.88  15 1.90  33 1.92
  70  0.891  0.446  0.439-  34 1.86   4 1.87  16 1.89  14 1.89
  71  0.903  0.452  0.930-   5 1.82   1 1.93  35 1.98  17 2.07  15 2.08
  72  0.893  0.785  0.439-  36 1.85   6 1.86  18 1.86  16 1.87
  73  0.888  0.776  0.943-   7 1.88  19 1.88  17 1.89  37 1.92

  LATTYP: Found a hexagonal cell.
 ALAT       =     9.2872017641
 C/A-ratio  =     1.0669595981
  
  Lattice vectors:
  
 A1 = (   9.2872018814,   0.0000000000,   0.0000000000)
 A2 = (  -4.6436029654,   8.0429537929,   0.0000000000)
 A3 = (   0.0000000000,   0.0000000000,   9.9090690613)


Analysis of symmetry for initial positions (statically):
=====================================================================
 Subroutine PRICEL returns:
 Original cell was already a primitive cell.
 

 Routine SETGRP: Setting up the symmetry group for a 
 hexagonal supercell.


 Subroutine GETGRP returns: Found  2 space group operations
 (whereof  2 operations were pure point group operations)
 out of a pool of 24 trial point group operations.


The static configuration has the point symmetry C_1h.


Analysis of symmetry for dynamics (positions and initial velocities):
=====================================================================
 Subroutine PRICEL returns:
 Original cell was already a primitive cell.
 

 Routine SETGRP: Setting up the symmetry group for a 
 hexagonal supercell.


 Subroutine GETGRP returns: Found  2 space group operations
 (whereof  2 operations were pure point group operations)
 out of a pool of 24 trial point group operations.


The dynamic configuration has the point symmetry C_1h.


 Subroutine INISYM returns: Found  2 space group operations
 (whereof  2 operations are pure point group operations),
 and found     1 'primitive' translations



 KPOINTS: 0.030  15  15   7  108  0.040  201    9 
  k-points in reciprocal lattice
Space group operators:
 irot       det(A)        alpha          n_x          n_y          n_z        tau_x        tau_y        tau_z
    1     1.000000     0.000000     1.000000     0.000000     0.000000     0.000000     0.000000     0.000000
    2    -1.000000   180.000000    -0.500000    -0.866025     0.000000     0.000000     0.000000     0.000000

 ----------------------------------------------------------------------------- 
|                                                                             |
|           W    W    AA    RRRRR   N    N  II  N    N   GGGG   !!!           |
|           W    W   A  A   R    R  NN   N  II  NN   N  G    G  !!!           |
|           W    W  A    A  R    R  N N  N  II  N N  N  G       !!!           |
|           W WW W  AAAAAA  RRRRR   N  N N  II  N  N N  G  GGG   !            |
|           WW  WW  A    A  R   R   N   NN  II  N   NN  G    G                |
|           W    W  A    A  R    R  N    N  II  N    N   GGGG   !!!           |
|                                                                             |
|      Your generating k-point grid is not commensurate to the symmetry       |
|      of the lattice.  This can cause   slow convergence with respect        |
|      to k-points for HF type calculations                                   |
|      suggested SOLUTIONS:                                                   |
|       ) if not already the case, use automatic k-point generation           |
|       ) shift your grid to Gamma (G) (e.g. required for hex or fcc lattice) |
|                                                                             |
 ----------------------------------------------------------------------------- 

 
 Subroutine IBZKPT_HF returns following result:
 ==============================================
 
 Found     86 k-points in 1st BZ
 the following     86 k-points will be used (e.g. in the exchange kernel)
 Following reciprocal coordinates:   # in IRBZ
  0.000000  0.000000  0.000000    0.12500000   1 t-inv F
  0.500000  0.000000  0.000000    0.12500000   2 t-inv F
  0.500000  0.500000  0.000000    0.12500000   3 t-inv F
  0.000000  0.000000  0.500000    0.12500000   4 t-inv F
  0.500000  0.000000  0.500000    0.12500000   5 t-inv F
  0.500000  0.500000  0.500000    0.12500000   6 t-inv F
  0.000000  0.000000  0.000000    0.00000000   7 t-inv F
  0.017857  0.000000  0.000000    0.00000000   8 t-inv F
  0.035714  0.000000  0.000000    0.00000000   9 t-inv F
  0.053571  0.000000  0.000000    0.00000000  10 t-inv F
  0.071429  0.000000  0.000000    0.00000000  11 t-inv F
  0.089286  0.000000  0.000000    0.00000000  12 t-inv F
  0.107143  0.000000  0.000000    0.00000000  13 t-inv F
  0.125000  0.000000  0.000000    0.00000000  14 t-inv F
  0.142857  0.000000  0.000000    0.00000000  15 t-inv F
  0.160714  0.000000  0.000000    0.00000000  16 t-inv F
  0.178571  0.000000  0.000000    0.00000000  17 t-inv F
  0.196429  0.000000  0.000000    0.00000000  18 t-inv F
  0.214286  0.000000  0.000000    0.00000000  19 t-inv F
  0.232143  0.000000  0.000000    0.00000000  20 t-inv F
  0.250000  0.000000  0.000000    0.00000000  21 t-inv F
  0.267857  0.000000  0.000000    0.00000000  22 t-inv F
  0.285714  0.000000  0.000000    0.00000000  23 t-inv F
  0.303571  0.000000  0.000000    0.00000000  24 t-inv F
  0.321429  0.000000  0.000000    0.00000000  25 t-inv F
  0.339286  0.000000  0.000000    0.00000000  26 t-inv F
  0.357143  0.000000  0.000000    0.00000000  27 t-inv F
  0.375000  0.000000  0.000000    0.00000000  28 t-inv F
  0.392857  0.000000  0.000000    0.00000000  29 t-inv F
  0.410714  0.000000  0.000000    0.00000000  30 t-inv F
  0.428571  0.000000  0.000000    0.00000000  31 t-inv F
  0.446429  0.000000  0.000000    0.00000000  32 t-inv F
  0.464286  0.000000  0.000000    0.00000000  33 t-inv F
  0.482143  0.000000  0.000000    0.00000000  34 t-inv F
  0.500000  0.000000  0.000000    0.00000000  35 t-inv F
  0.500000  0.000000  0.000000    0.00000000  36 t-inv F
  0.488889  0.022222  0.000000    0.00000000  37 t-inv F
  0.477778  0.044444  0.000000    0.00000000  38 t-inv F
  0.466667  0.066667  0.000000    0.00000000  39 t-inv F
  0.455556  0.088889  0.000000    0.00000000  40 t-inv F
  0.444444  0.111111  0.000000    0.00000000  41 t-inv F
  0.433333  0.133333  0.000000    0.00000000  42 t-inv F
  0.422222  0.155556  0.000000    0.00000000  43 t-inv F
  0.411111  0.177778  0.000000    0.00000000  44 t-inv F
  0.400000  0.200000  0.000000    0.00000000  45 t-inv F
  0.388889  0.222222  0.000000    0.00000000  46 t-inv F
  0.377778  0.244444  0.000000    0.00000000  47 t-inv F
  0.366667  0.266667  0.000000    0.00000000  48 t-inv F
  0.355556  0.288889  0.000000    0.00000000  49 t-inv F
  0.344444  0.311111  0.000000    0.00000000  50 t-inv F
  0.333333  0.333333  0.000000    0.00000000  51 t-inv F
  0.333333  0.333333  0.000000    0.00000000  52 t-inv F
  0.322917  0.322917  0.000000    0.00000000  53 t-inv F
  0.312500  0.312500  0.000000    0.00000000  54 t-inv F
  0.302083  0.302083  0.000000    0.00000000  55 t-inv F
  0.291667  0.291667  0.000000    0.00000000  56 t-inv F
  0.281250  0.281250  0.000000    0.00000000  57 t-inv F
  0.270833  0.270833  0.000000    0.00000000  58 t-inv F
  0.260417  0.260417  0.000000    0.00000000  59 t-inv F
  0.250000  0.250000  0.000000    0.00000000  60 t-inv F
  0.239583  0.239583  0.000000    0.00000000  61 t-inv F
  0.229167  0.229167  0.000000    0.00000000  62 t-inv F
  0.218750  0.218750  0.000000    0.00000000  63 t-inv F
  0.208333  0.208333  0.000000    0.00000000  64 t-inv F
  0.197917  0.197917  0.000000    0.00000000  65 t-inv F
  0.187500  0.187500  0.000000    0.00000000  66 t-inv F
  0.177083  0.177083  0.000000    0.00000000  67 t-inv F
  0.166667  0.166667  0.000000    0.00000000  68 t-inv F
  0.156250  0.156250  0.000000    0.00000000  69 t-inv F
  0.145833  0.145833  0.000000    0.00000000  70 t-inv F
  0.135417  0.135417  0.000000    0.00000000  71 t-inv F
  0.125000  0.125000  0.000000    0.00000000  72 t-inv F
  0.114583  0.114583  0.000000    0.00000000  73 t-inv F
  0.104167  0.104167  0.000000    0.00000000  74 t-inv F
  0.093750  0.093750  0.000000    0.00000000  75 t-inv F
  0.083333  0.083333  0.000000    0.00000000  76 t-inv F
  0.072917  0.072917  0.000000    0.00000000  77 t-inv F
  0.062500  0.062500  0.000000    0.00000000  78 t-inv F
  0.052083  0.052083  0.000000    0.00000000  79 t-inv F
  0.041667  0.041667  0.000000    0.00000000  80 t-inv F
  0.031250  0.031250  0.000000    0.00000000  81 t-inv F
  0.020833  0.020833  0.000000    0.00000000  82 t-inv F
  0.010417  0.010417  0.000000    0.00000000  83 t-inv F
  0.000000  0.000000  0.000000    0.00000000  84 t-inv F
  0.000000 -0.500000  0.000000    0.12500000   2 t-inv F
  0.000000 -0.500000  0.500000    0.12500000   5 t-inv F


--------------------------------------------------------------------------------------------------------




 Dimension of arrays:
   k-points           NKPTS =     84   k-points in BZ     NKDIM =     86   number of bands    NBANDS=    192
   number of dos      NEDOS =    301   number of ions     NIONS =     73
   non local maximal  LDIM  =      4   non local SUM 2l+1 LMDIM =      8
   total plane-waves  NPLWV = 157464
   max r-space proj   IRMAX =   1883   max aug-charges    IRDMAX=   8478
   dimension x,y,z NGX =    54 NGY =   54 NGZ =   54
   dimension x,y,z NGXF=   108 NGYF=  108 NGZF=  108
   support grid    NGXF=   108 NGYF=  108 NGZF=  108
   ions per type =              37  36
 NGX,Y,Z   is equivalent  to a cutoff of   9.67,  9.67,  9.06 a.u.
 NGXF,Y,Z  is equivalent  to a cutoff of  19.33, 19.33, 18.12 a.u.


 I would recommend the setting:
   dimension x,y,z NGX =    51 NGY =   51 NGZ =   54
 SYSTEM =  unknown system                          
 POSCAR =  Al2 N2                                  

 Startparameter for this run:
   NWRITE =      2    write-flag & timer
   PREC   = normal    normal or accurate (medium, high low for compatibility)
   ISTART =      1    job   : 0-new  1-cont  2-samecut
   ICHARG =      0    charge: 1-file 2-atom 10-const
   ISPIN  =      1    spin polarized calculation?
   LNONCOLLINEAR =      F non collinear calculations
   LSORBIT =      F    spin-orbit coupling
   INIWAV =      1    electr: 0-lowe 1-rand  2-diag
   LASPH  =      F    aspherical Exc in radial PAW
   METAGGA=      F    non-selfconsistent MetaGGA calc.

 Electronic Relaxation 1
   ENCUT  =  500.0 eV  36.75 Ry    6.06 a.u.  16.93 16.93 18.07*2*pi/ulx,y,z
   ENINI  =  500.0     initial cutoff
   ENAUG  =  627.1 eV  augmentation charge cutoff
   NELM   =    300;   NELMIN=  8; NELMDL=  0     # of ELM steps 
   EDIFF  = 0.1E-05   stopping-criterion for ELM
   LREAL  =      T    real-space projection
   NLSPLINE    = F    spline interpolate recip. space projectors
   LCOMPAT=      F    compatible to vasp.4.4
   GGA_COMPAT  = T    GGA compatible to vasp.4.4-vasp.4.6
   LMAXPAW     = -100 max onsite density
   LMAXMIX     =    2 max onsite mixed and CHGCAR
   VOSKOWN=      0    Vosko Wilk Nusair interpolation
   ROPT   =   -0.00050  -0.00050
 Ionic relaxation
   EDIFFG = -.2E-01   stopping-criterion for IOM
   NSW    =      0    number of steps for IOM
   NBLOCK =      1;   KBLOCK =      1    inner block; outer block 
   IBRION =     -1    ionic relax: 0-MD 1-quasi-New 2-CG
   NFREE  =      0    steps in history (QN), initial steepest desc. (CG)
   ISIF   =      2    stress and relaxation
   IWAVPR =     10    prediction:  0-non 1-charg 2-wave 3-comb
   ISYM   =      3    0-nonsym 1-usesym 2-fastsym
   LCORR  =      T    Harris-Foulkes like correction to forces

   POTIM  = 0.0200    time-step for ionic-motion
   TEIN   =    0.0    initial temperature
   TEBEG  =    0.0;   TEEND  =   0.0 temperature during run
   SMASS  =  -3.00    Nose mass-parameter (am)
   estimated Nose-frequenzy (Omega)   =  0.10E-29 period in steps =****** mass=  -0.197E-26a.u.
   SCALEE = 1.0000    scale energy and forces
   NPACO  =    256;   APACO  = 16.0  distance and # of slots for P.C.
   PSTRESS=    0.0 pullay stress

  Mass of Ions in am
   POMASS =  26.98 14.00
  Ionic Valenz
   ZVAL   =   3.00  5.00
  Atomic Wigner-Seitz radii
   RWIGS  =  -1.00 -1.00
  virtual crystal weights 
   VCA    =   1.00  1.00
   NELECT =     292.0000    total number of electrons
   NUPDOWN=      -1.0000    fix difference up-down

 DOS related values:
   EMIN   =  10.00;   EMAX   =-10.00  energy-range for DOS
   EFERMI =   0.00
   ISMEAR =     0;   SIGMA  =   0.02  broadening in eV -4-tet -1-fermi 0-gaus

 Electronic relaxation 2 (details)
   IALGO  =     38    algorithm
   LDIAG  =      T    sub-space diagonalisation (order eigenvalues)
   LSUBROT=      F    optimize rotation matrix (better conditioning)
   TURBO    =      0    0=normal 1=particle mesh
   IRESTART =      0    0=no restart 2=restart with 2 vectors
   NREBOOT  =      0    no. of reboots
   NMIN     =      0    reboot dimension
   EREF     =   0.00    reference energy to select bands
   IMIX   =      1    mixing-type and parameters
     AMIX     =   0.40;   BMIX     =  1.00
     AMIX_MAG =   1.60;   BMIX_MAG =  1.00
     AMIN     =   0.10
     WC   =   100.;   INIMIX=   1;  MIXPRE=   1;  MAXMIX= -45

 Intra band minimization:
   WEIMIN = 0.0000     energy-eigenvalue tresh-hold
   EBREAK =  0.13E-08  absolut break condition
   DEPER  =   0.30     relativ break condition  

   TIME   =   0.40     timestep for ELM

  volume/ion in A,a.u.               =      10.14        68.42
  Fermi-wavevector in a.u.,A,eV,Ry     =   1.200673  2.268943 19.614366  1.441615
  Thomas-Fermi vector in A             =   2.336502

 Write flags
   LWAVE  =      F    write WAVECAR
   LCHARG =      F    write CHGCAR
   LVTOT  =      F    write LOCPOT, total local potential
   LVHAR  =      F    write LOCPOT, Hartree potential only
   LELF   =      F    write electronic localiz. function (ELF)
   LORBIT =     11    0 simple, 1 ext, 2 COOP (PROOUT)


 Dipole corrections
   LMONO  =      F    monopole corrections only (constant potential shift)
   LDIPOL =      F    correct potential (dipole corrections)
   IDIPOL =      0    1-x, 2-y, 3-z, 4-all directions 
   EPSILON=  1.0000000 bulk dielectric constant

 Exchange correlation treatment:
   GGA     =    --    GGA type
   LEXCH   =     8    internal setting for exchange type
   VOSKOWN=      0    Vosko Wilk Nusair interpolation
   EXXOEP  =     0    0=HF, 1=EXX-LHF (local Hartree Fock) 2=EXX OEP
   LHFCALC =     T    Hartree Fock is set to
   LSYMGRAD=     F    symmetrize gradient (conserves proper symmetry)
   PRECFOCK=fast      Normal, Fast or Accurate (Low or Medium for compatibility)
   LRHFCALC=     F    long range Hartree Fock
   LRSCOR  =     F    long range correlation only (use DFT for short range part)
   LTHOMAS =     F    Thomas Fermi screening in HF
   LMODELHF=     F    short range full HF, long range fraction AEXX
   ENCUT4O =  -1.0   cutoff for four orbital integrals eV
   LMAXFOCK=     4    L truncation for augmentation on plane wave grid
   LMAXFOCKAE=  -1    L truncation for all-electron charge restoration on plane wave grid
   NMAXFOCKAE=   1    number of basis functions for all-electron charge restoration
   LFOCKAEDFT=     F  apply the AE augmentation even for DFT
   NKREDX  =     1    reduce k-point grid by
   NKREDY  =     1    reduce k-point grid by
   NKREDZ  =     1    reduce k-point grid by
   SHIFTRED=     F    shift reduced grid of Gamma
   HFKIDENT=     F    idential grid for each k-point
   ODDONLY =     F    use only odd q-grid points
   EVENONLY=     F    use only even q-grid points
   HFALPHA =   -1.0000 decay constant for conv. correction
   MCALPHA =    0.0000 extent of test-charge in conv. correction in multipole expansion
   AEXX    =    0.3300 exact exchange contribution
   HFSCREEN=    0.2000 screening length (either q_TF or 0.3 A-1)
   HFSCREENC=   0.2000 screening length for correlation (either q_TF or 0.3 A-1)
   HFRCUT  =    0.0000 spherical cutoff for potential kernel
   ALDAX   =    0.6700 LDA exchange part
   AGGAX   =    0.6700 GGA exchange part
   ALDAC   =    1.0000 LDA correlation
   AGGAC   =    1.0000 GGA correlation
   NBANDSGWLOW=     1    first orbital included in HF term
   ENCUTFOCK=  -1.0 apply spherical cutoff to Coloumb kernel
 Linear response parameters
   LEPSILON=     F    determine dielectric tensor
   LRPA    =     F    only Hartree local field effects (RPA)
   LNABLA  =     F    use nabla operator in PAW spheres
   LVEL    =     F    velocity operator in full k-point grid
   LINTERFAST=   F  fast interpolation
   KINTER  =     0    interpolate to denser k-point grid
   CSHIFT  =0.1000    complex shift for real part using Kramers Kronig
   OMEGAMAX=  -1.0    maximum frequency
   DEG_THRESHOLD= 0.2000000E-02 threshold for treating states as degnerate
   RTIME   =    0.100 relaxation time in fs

 Orbital magnetization related:
   ORBITALMAG=     F  switch on orbital magnetization
   LCHIMAG   =     F  perturbation theory with respect to B field
   DQ        =  0.001000  dq finite difference perturbation B field



--------------------------------------------------------------------------------------------------------


 Static calculation
 charge density and potential will be updated during run
 non-spin polarized calculation
 Variant of blocked Davidson
 Davidson routine will perform the subspace rotation
 perform sub-space diagonalisation
    after iterative eigenvector-optimisation
 Kerker-like  mixing scheme
 using additional bands           46
 real space projection scheme for non local part
 use partial core corrections
 calculate Harris-corrections to forces   (improved forces if not selfconsistent)
 use gradient corrections 
 use of overlap-Matrix (Vanderbilt PP)
 Gauss-broadening in eV      SIGMA  =   0.02


--------------------------------------------------------------------------------------------------------


  energy-cutoff  :      500.00
  volume of cell :      740.17
      direct lattice vectors                 reciprocal lattice vectors
     9.287201881  0.000000000  0.000000000     0.107675058  0.062166243 -0.000000000
    -4.643602965  8.042953793  0.000000000     0.000000000  0.124332431  0.000000000
     0.000000000  0.000000000  9.909069061     0.000000000 -0.000000000  0.100917654

  length of vectors
     9.287201881  9.287203789  9.909069061     0.124332457  0.124332431  0.100917654



 old parameters found on file WAVECAR:
  energy-cutoff  :      500.00
  volume of cell :      740.17
      direct lattice vectors                 reciprocal lattice vectors
     9.287201881  0.000000000  0.000000000     0.107675058  0.062166243 -0.000000000
    -4.643602965  8.042953793  0.000000000     0.000000000  0.124332431  0.000000000
     0.000000000  0.000000000  9.909069061     0.000000000 -0.000000000  0.100917654

  length of vectors


 k-points in units of 2pi/SCALE and weight: 0.030  15  15   7  108  0.040  201    9 
   0.00000000  0.00000000  0.00000000       0.125
   0.05383753  0.03108312  0.00000000       0.250
   0.05383753  0.09324934  0.00000000       0.125
   0.00000000  0.00000000  0.05045883       0.125
   0.05383753  0.03108312  0.05045883       0.250
   0.05383753  0.09324934  0.05045883       0.125
   0.00000000  0.00000000  0.00000000       0.000
   0.00192277  0.00111011  0.00000000       0.000
   0.00384554  0.00222022  0.00000000       0.000
   0.00576831  0.00333033  0.00000000       0.000
   0.00769108  0.00444045  0.00000000       0.000
   0.00961384  0.00555056  0.00000000       0.000
   0.01153661  0.00666067  0.00000000       0.000
   0.01345938  0.00777078  0.00000000       0.000
   0.01538215  0.00888089  0.00000000       0.000
   0.01730492  0.00999100  0.00000000       0.000
   0.01922769  0.01110111  0.00000000       0.000
   0.02115046  0.01221123  0.00000000       0.000
   0.02307323  0.01332134  0.00000000       0.000
   0.02499600  0.01443145  0.00000000       0.000
   0.02691876  0.01554156  0.00000000       0.000
   0.02884153  0.01665167  0.00000000       0.000
   0.03076430  0.01776178  0.00000000       0.000
   0.03268707  0.01887190  0.00000000       0.000
   0.03460984  0.01998201  0.00000000       0.000
   0.03653261  0.02109212  0.00000000       0.000
   0.03845538  0.02220223  0.00000000       0.000
   0.04037815  0.02331234  0.00000000       0.000
   0.04230092  0.02442245  0.00000000       0.000
   0.04422368  0.02553256  0.00000000       0.000
   0.04614645  0.02664268  0.00000000       0.000
   0.04806922  0.02775279  0.00000000       0.000
   0.04999199  0.02886290  0.00000000       0.000
   0.05191476  0.02997301  0.00000000       0.000
   0.05383753  0.03108312  0.00000000       0.000
   0.05383753  0.03108312  0.00000000       0.000
   0.05264114  0.03315533  0.00000000       0.000
   0.05144475  0.03522754  0.00000000       0.000
   0.05024836  0.03729974  0.00000000       0.000
   0.04905197  0.03937195  0.00000000       0.000
   0.04785558  0.04144416  0.00000000       0.000
   0.04665919  0.04351636  0.00000000       0.000
   0.04546280  0.04558857  0.00000000       0.000
   0.04426641  0.04766078  0.00000000       0.000
   0.04307002  0.04973298  0.00000000       0.000
   0.04187363  0.05180519  0.00000000       0.000
   0.04067724  0.05387740  0.00000000       0.000
   0.03948085  0.05594960  0.00000000       0.000
   0.03828447  0.05802181  0.00000000       0.000
   0.03708808  0.06009402  0.00000000       0.000
   0.03589169  0.06216622  0.00000000       0.000
   0.03589169  0.06216622  0.00000000       0.000
   0.03477007  0.06022353  0.00000000       0.000
   0.03364846  0.05828084  0.00000000       0.000
   0.03252684  0.05633814  0.00000000       0.000
   0.03140523  0.05439545  0.00000000       0.000
   0.03028361  0.05245275  0.00000000       0.000
   0.02916199  0.05051006  0.00000000       0.000
   0.02804038  0.04856736  0.00000000       0.000
   0.02691876  0.04662467  0.00000000       0.000
   0.02579715  0.04468197  0.00000000       0.000
   0.02467553  0.04273928  0.00000000       0.000
   0.02355392  0.04079658  0.00000000       0.000
   0.02243230  0.03885389  0.00000000       0.000
   0.02131069  0.03691120  0.00000000       0.000
   0.02018907  0.03496850  0.00000000       0.000
   0.01906746  0.03302581  0.00000000       0.000
   0.01794584  0.03108311  0.00000000       0.000
   0.01682423  0.02914042  0.00000000       0.000
   0.01570261  0.02719772  0.00000000       0.000
   0.01458100  0.02525503  0.00000000       0.000
   0.01345938  0.02331233  0.00000000       0.000
   0.01233777  0.02136964  0.00000000       0.000
   0.01121615  0.01942695  0.00000000       0.000
   0.01009454  0.01748425  0.00000000       0.000
   0.00897292  0.01554156  0.00000000       0.000
   0.00785131  0.01359886  0.00000000       0.000
   0.00672969  0.01165617  0.00000000       0.000
   0.00560808  0.00971347  0.00000000       0.000
   0.00448646  0.00777078  0.00000000       0.000
   0.00336485  0.00582808  0.00000000       0.000
   0.00224323  0.00388539  0.00000000       0.000
   0.00112162  0.00194269  0.00000000       0.000
   0.00000000  0.00000000  0.00000000       0.000

 k-points in reciprocal lattice and weights: 0.030  15  15   7  108  0.040  201    9 
   0.00000000  0.00000000  0.00000000       0.125
   0.50000000  0.00000000  0.00000000       0.250
   0.50000000  0.50000000  0.00000000       0.125
   0.00000000  0.00000000  0.50000000       0.125
   0.50000000  0.00000000  0.50000000       0.250
   0.50000000  0.50000000  0.50000000       0.125
   0.00000000  0.00000000  0.00000000       0.000
   0.01785714  0.00000000  0.00000000       0.000
   0.03571429  0.00000000  0.00000000       0.000
   0.05357143  0.00000000  0.00000000       0.000
   0.07142857  0.00000000  0.00000000       0.000
   0.08928571  0.00000000  0.00000000       0.000
   0.10714286  0.00000000  0.00000000       0.000
   0.12500000  0.00000000  0.00000000       0.000
   0.14285714  0.00000000  0.00000000       0.000
   0.16071429  0.00000000  0.00000000       0.000
   0.17857143  0.00000000  0.00000000       0.000
   0.19642857  0.00000000  0.00000000       0.000
   0.21428571  0.00000000  0.00000000       0.000
   0.23214286  0.00000000  0.00000000       0.000
   0.25000000  0.00000000  0.00000000       0.000
   0.26785714  0.00000000  0.00000000       0.000
   0.28571429  0.00000000  0.00000000       0.000
   0.30357143  0.00000000  0.00000000       0.000
   0.32142857  0.00000000  0.00000000       0.000
   0.33928571  0.00000000  0.00000000       0.000
   0.35714286  0.00000000  0.00000000       0.000
   0.37500000  0.00000000  0.00000000       0.000
   0.39285714  0.00000000  0.00000000       0.000
   0.41071429  0.00000000  0.00000000       0.000
   0.42857143  0.00000000  0.00000000       0.000
   0.44642857  0.00000000  0.00000000       0.000
   0.46428571  0.00000000  0.00000000       0.000
   0.48214286  0.00000000  0.00000000       0.000
   0.50000000  0.00000000  0.00000000       0.000
   0.50000000  0.00000000  0.00000000       0.000
   0.48888889  0.02222222  0.00000000       0.000
   0.47777778  0.04444444  0.00000000       0.000
   0.46666667  0.06666667  0.00000000       0.000
   0.45555556  0.08888889  0.00000000       0.000
   0.44444444  0.11111111  0.00000000       0.000
   0.43333333  0.13333333  0.00000000       0.000
   0.42222222  0.15555556  0.00000000       0.000
   0.41111111  0.17777778  0.00000000       0.000
   0.40000000  0.20000000  0.00000000       0.000
   0.38888889  0.22222222  0.00000000       0.000
   0.37777778  0.24444444  0.00000000       0.000
   0.36666667  0.26666667  0.00000000       0.000
   0.35555556  0.28888889  0.00000000       0.000
   0.34444444  0.31111111  0.00000000       0.000
   0.33333333  0.33333333  0.00000000       0.000
   0.33333333  0.33333333  0.00000000       0.000
   0.32291667  0.32291667  0.00000000       0.000
   0.31250000  0.31250000  0.00000000       0.000
   0.30208333  0.30208333  0.00000000       0.000
   0.29166667  0.29166667  0.00000000       0.000
   0.28125000  0.28125000  0.00000000       0.000
   0.27083333  0.27083333  0.00000000       0.000
   0.26041667  0.26041667  0.00000000       0.000
   0.25000000  0.25000000  0.00000000       0.000
   0.23958333  0.23958333  0.00000000       0.000
   0.22916667  0.22916667  0.00000000       0.000
   0.21875000  0.21875000  0.00000000       0.000
   0.20833333  0.20833333  0.00000000       0.000
   0.19791667  0.19791667  0.00000000       0.000
   0.18750000  0.18750000  0.00000000       0.000
   0.17708333  0.17708333  0.00000000       0.000
   0.16666667  0.16666667  0.00000000       0.000
   0.15625000  0.15625000  0.00000000       0.000
   0.14583333  0.14583333  0.00000000       0.000
   0.13541667  0.13541667  0.00000000       0.000
   0.12500000  0.12500000  0.00000000       0.000
   0.11458333  0.11458333  0.00000000       0.000
   0.10416667  0.10416667  0.00000000       0.000
   0.09375000  0.09375000  0.00000000       0.000
   0.08333333  0.08333333  0.00000000       0.000
   0.07291667  0.07291667  0.00000000       0.000
   0.06250000  0.06250000  0.00000000       0.000
   0.05208333  0.05208333  0.00000000       0.000
   0.04166667  0.04166667  0.00000000       0.000
   0.03125000  0.03125000  0.00000000       0.000
   0.02083333  0.02083333  0.00000000       0.000
   0.01041667  0.01041667  0.00000000       0.000
   0.00000000  0.00000000  0.00000000       0.000

 position of ions in fractional coordinates (direct lattice) 
   0.66694905  0.33305428  0.89640704
   0.11075905  0.22156229  0.50300996
   0.11131299  0.22281370  0.99769973
   0.11250564  0.55631219  0.49709471
   0.11497803  0.55748817  0.99559182
   0.11072343  0.88927658  0.50283746
   0.11142059  0.88857942  0.99759354
   0.43870702  0.21943130  0.48918982
   0.43893883  0.21912847  0.02186944
   0.44377721  0.55622276  0.49727927
   0.44265906  0.55734091  0.99578261
   0.44368778  0.88749437  0.49709471
   0.44251181  0.88502198  0.99559182
   0.78058870  0.21941130  0.48907255
   0.78036595  0.21963405  0.02255969
   0.78056870  0.56129295  0.48918982
   0.78087153  0.56106114  0.02186944
   0.77843771  0.88924096  0.50300996
   0.77718630  0.88868702  0.99769973
   0.21364147  0.10683630  0.25299934
   0.22315554  0.11156121  0.75009071
   0.22184429  0.44379326  0.24747049
   0.22273689  0.44534987  0.74705468
   0.22190290  0.77809710  0.24736375
   0.22265272  0.77734728  0.74695452
   0.55504126  0.11013042  0.25058473
   0.56010927  0.12044946  0.73149661
   0.55496377  0.44503620  0.25056211
   0.56049208  0.43950789  0.73196702
   0.55620671  0.77815571  0.24747049
   0.55465010  0.77726311  0.74705468
   0.89333629  0.10666372  0.25330803
   0.88831318  0.11168683  0.75014557
   0.88986959  0.44495871  0.25058473
   0.87955055  0.43989070  0.73149661
   0.89316371  0.78635853  0.25299934
   0.88843880  0.77684446  0.75009071
   0.11117320  0.22234273  0.18827937
   0.11085153  0.22185055  0.69358047
   0.11107739  0.55554048  0.18790871
   0.11208041  0.55600034  0.68509249
   0.11117014  0.88882987  0.18819023
   0.11089644  0.88910357  0.69344713
   0.43523462  0.21769424  0.20651834
   0.42880073  0.21442069  0.67327870
   0.44435336  0.55564661  0.18805482
   0.44418654  0.55581343  0.68541385
   0.44445949  0.88892262  0.18790871
   0.44399963  0.88791960  0.68509249
   0.78255644  0.21744356  0.20715260
   0.78549289  0.21450711  0.67325413
   0.78230576  0.56476535  0.20651834
   0.78557931  0.57119924  0.67327870
   0.77765727  0.88882680  0.18827937
   0.77814945  0.88914848  0.69358047
   0.21462300  0.10737554  0.43933087
   0.22415172  0.11213274  0.94341286
   0.22142678  0.44285280  0.43772834
   0.22233484  0.44444069  0.93879624
   0.22137804  0.77862196  0.43759825
   0.22222185  0.77777815  0.93871678
   0.55447641  0.10914290  0.43858323
   0.54789269  0.09668791  0.93009995
   0.55455153  0.44544844  0.43852703
   0.54881988  0.45118010  0.93114167
   0.55714717  0.77857322  0.43772834
   0.55555928  0.77766516  0.93879624
   0.89270407  0.10729594  0.43958295
   0.88767846  0.11232155  0.94355150
   0.89085710  0.44552356  0.43858323
   0.90331210  0.45210728  0.93009995
   0.89262447  0.78537700  0.43933087
   0.88786727  0.77584828  0.94341286

 position of ions in cartesian coordinates  (Angst):
   4.64751863  2.67874020  8.88255927
  -0.00020570  1.78201528  4.98436041
  -0.00087219  1.79208030  9.88627556
  -1.53843034  4.47439322  4.92574582
  -1.52092952  4.48385155  9.86538807
  -3.10113655  7.15241045  4.98265114
  -3.09142451  7.14680320  9.88522325
   3.05540879  1.76487584  4.84741569
   3.05896795  1.76244014  0.21670575
   1.53857094  4.47367393  4.92757458
   1.52299413  4.48266720  9.86727870
  -0.00055347  7.13807620  4.92574582
   0.00000579  7.11819088  9.86538807
   6.23062586  1.76471496  4.84625365
   6.22752279  1.76650652  0.22354557
   4.64287744  4.51445328  4.84741569
   4.64676640  4.51258881  0.21670575
   3.10022617  7.15212397  4.98436041
   3.09117637  7.14766865  9.88627556
   1.48802610  0.85927944  2.50698797
   1.55444455  0.89728167  7.43270067
  -0.00048693  3.56940866  2.45220219
   0.00057443  3.58192846  7.40261641
  -1.55231697  6.25819902  2.45114449
  -1.54187132  6.25216822  7.40162393
   4.64337833  0.88577386  2.48306136
   4.64252842  0.96876941  7.24845039
   3.08748914  3.57940560  2.48283727
   3.16450292  3.53494168  7.25311172
   1.55215790  6.25867038  2.45220219
   1.54184612  6.25149131  7.40261641
   7.80129054  0.85789134  2.51004677
   7.73131453  0.89829201  7.43324430
   6.19818696  3.57878233  2.48306136
   6.12588578  3.53802058  7.24845039
   4.64345486  6.32464531  2.50698797
   4.64375321  6.24812412  7.43270067
   0.00001664  1.78829228  1.86567328
  -0.00068535  1.78433371  6.87273680
  -1.54811127  4.46818644  1.86200038
  -1.54093147  4.47188507  6.78862883
  -3.09491344  7.14881753  1.86478997
  -3.09872631  7.15101890  6.87141546
   3.03122617  1.75090473  2.04640451
   2.98667438  1.72457566  6.67156511
   1.54659710  4.46904002  1.86344815
   1.54427323  4.47038171  6.79181317
  -0.00001871  7.14956352  1.86200038
   0.00036809  7.14149631  6.78862883
   6.25803807  1.74888851  2.05268942
   6.29894518  1.72527078  6.67132162
   4.64288545  4.54238161  2.04640451
   4.64341119  4.59412913  6.67156511
   3.09490131  7.14879292  1.86567328
   3.09797853  7.15138015  6.87273680
   1.49463773  0.86361648  4.35335992
   1.56104239  0.90187841  9.34834316
   0.00000267  3.56184460  4.33748038
   0.00106239  3.57461594  9.30259679
  -1.55962873  6.26242047  4.33619129
  -1.54787368  6.25563369  9.30180939
   4.64271801  0.87783134  4.34595150
   4.63940975  0.77765639  9.21642460
   3.08174628  3.58272124  4.34539464
   3.00189975  3.62882066  9.22674708
   1.55895337  6.26202841  4.33748038
   1.54842293  6.25472499  9.30259679
   7.79248320  0.86297626  4.35585777
   7.72247237  0.90339704  9.34971699
   6.20473522  3.58332544  4.34595150
   6.28983510  3.63627798  9.21642460
   4.64300469  6.31675095  4.35335992
   4.64307124  6.24011185  9.34834316



--------------------------------------------------------------------------------------------------------


 k-point  1 :   0.0000 0.0000 0.0000  plane waves:   18757
 k-point  2 :   0.5000 0.0000 0.0000  plane waves:   18798
 k-point  3 :   0.5000 0.5000 0.0000  plane waves:   18798
 k-point  4 :   0.0000 0.0000 0.5000  plane waves:   18732
 k-point  5 :   0.5000 0.0000 0.5000  plane waves:   18816
 k-point  6 :   0.5000 0.5000 0.5000  plane waves:   18816
 k-point  7 :   0.0000 0.0000 0.0000  plane waves:   18757
 k-point  8 :   0.0179 0.0000 0.0000  plane waves:   18773
 k-point  9 :   0.0357 0.0000 0.0000  plane waves:   18781
 k-point 10 :   0.0536 0.0000 0.0000  plane waves:   18781
 k-point 11 :   0.0714 0.0000 0.0000  plane waves:   18775
 k-point 12 :   0.0893 0.0000 0.0000  plane waves:   18783
 k-point 13 :   0.1071 0.0000 0.0000  plane waves:   18771
 k-point 14 :   0.1250 0.0000 0.0000  plane waves:   18771
 k-point 15 :   0.1429 0.0000 0.0000  plane waves:   18761
 k-point 16 :   0.1607 0.0000 0.0000  plane waves:   18757
 k-point 17 :   0.1786 0.0000 0.0000  plane waves:   18767
 k-point 18 :   0.1964 0.0000 0.0000  plane waves:   18767
 k-point 19 :   0.2143 0.0000 0.0000  plane waves:   18763
 k-point 20 :   0.2321 0.0000 0.0000  plane waves:   18755
 k-point 21 :   0.2500 0.0000 0.0000  plane waves:   18755
 k-point 22 :   0.2679 0.0000 0.0000  plane waves:   18741
 k-point 23 :   0.2857 0.0000 0.0000  plane waves:   18769
 k-point 24 :   0.3036 0.0000 0.0000  plane waves:   18755
 k-point 25 :   0.3214 0.0000 0.0000  plane waves:   18759
 k-point 26 :   0.3393 0.0000 0.0000  plane waves:   18760
 k-point 27 :   0.3571 0.0000 0.0000  plane waves:   18764
 k-point 28 :   0.3750 0.0000 0.0000  plane waves:   18784
 k-point 29 :   0.3929 0.0000 0.0000  plane waves:   18780
 k-point 30 :   0.4107 0.0000 0.0000  plane waves:   18768
 k-point 31 :   0.4286 0.0000 0.0000  plane waves:   18770
 k-point 32 :   0.4464 0.0000 0.0000  plane waves:   18788
 k-point 33 :   0.4643 0.0000 0.0000  plane waves:   18786
 k-point 34 :   0.4821 0.0000 0.0000  plane waves:   18792
 k-point 35 :   0.5000 0.0000 0.0000  plane waves:   18798
 k-point 36 :   0.5000 0.0000 0.0000  plane waves:   18798
 k-point 37 :   0.4889 0.0222 0.0000  plane waves:   18794
 k-point 38 :   0.4778 0.0444 0.0000  plane waves:   18780
 k-point 39 :   0.4667 0.0667 0.0000  plane waves:   18788
 k-point 40 :   0.4556 0.0889 0.0000  plane waves:   18769
 k-point 41 :   0.4444 0.1111 0.0000  plane waves:   18785
 k-point 42 :   0.4333 0.1333 0.0000  plane waves:   18801
 k-point 43 :   0.4222 0.1556 0.0000  plane waves:   18813
 k-point 44 :   0.4111 0.1778 0.0000  plane waves:   18831
 k-point 45 :   0.4000 0.2000 0.0000  plane waves:   18821
 k-point 46 :   0.3889 0.2222 0.0000  plane waves:   18831
 k-point 47 :   0.3778 0.2444 0.0000  plane waves:   18833
 k-point 48 :   0.3667 0.2667 0.0000  plane waves:   18821
 k-point 49 :   0.3556 0.2889 0.0000  plane waves:   18813
 k-point 50 :   0.3444 0.3111 0.0000  plane waves:   18823
 k-point 51 :   0.3333 0.3333 0.0000  plane waves:   18837
 k-point 52 :   0.3333 0.3333 0.0000  plane waves:   18837
 k-point 53 :   0.3229 0.3229 0.0000  plane waves:   18815
 k-point 54 :   0.3125 0.3125 0.0000  plane waves:   18817
 k-point 55 :   0.3021 0.3021 0.0000  plane waves:   18813
 k-point 56 :   0.2917 0.2917 0.0000  plane waves:   18813
 k-point 57 :   0.2812 0.2812 0.0000  plane waves:   18801
 k-point 58 :   0.2708 0.2708 0.0000  plane waves:   18797
 k-point 59 :   0.2604 0.2604 0.0000  plane waves:   18785
 k-point 60 :   0.2500 0.2500 0.0000  plane waves:   18811
 k-point 61 :   0.2396 0.2396 0.0000  plane waves:   18789
 k-point 62 :   0.2292 0.2292 0.0000  plane waves:   18791
 k-point 63 :   0.2187 0.2187 0.0000  plane waves:   18789
 k-point 64 :   0.2083 0.2083 0.0000  plane waves:   18793
 k-point 65 :   0.1979 0.1979 0.0000  plane waves:   18789
 k-point 66 :   0.1875 0.1875 0.0000  plane waves:   18771
 k-point 67 :   0.1771 0.1771 0.0000  plane waves:   18779
 k-point 68 :   0.1667 0.1667 0.0000  plane waves:   18771
 k-point 69 :   0.1562 0.1562 0.0000  plane waves:   18757
 k-point 70 :   0.1458 0.1458 0.0000  plane waves:   18737
 k-point 71 :   0.1354 0.1354 0.0000  plane waves:   18757
 k-point 72 :   0.1250 0.1250 0.0000  plane waves:   18749
 k-point 73 :   0.1146 0.1146 0.0000  plane waves:   18767
 k-point 74 :   0.1042 0.1042 0.0000  plane waves:   18759
 k-point 75 :   0.0937 0.0937 0.0000  plane waves:   18753
 k-point 76 :   0.0833 0.0833 0.0000  plane waves:   18767
 k-point 77 :   0.0729 0.0729 0.0000  plane waves:   18757
 k-point 78 :   0.0625 0.0625 0.0000  plane waves:   18771
 k-point 79 :   0.0521 0.0521 0.0000  plane waves:   18787
 k-point 80 :   0.0417 0.0417 0.0000  plane waves:   18771
 k-point 81 :   0.0312 0.0312 0.0000  plane waves:   18763
 k-point 82 :   0.0208 0.0208 0.0000  plane waves:   18779
 k-point 83 :   0.0104 0.0104 0.0000  plane waves:   18777
 k-point 84 :   0.0000 0.0000 0.0000  plane waves:   18757

 maximum and minimum number of plane-waves per node :      4733     4667

 maximum number of plane-waves:     18837
 maximum index in each direction: 
   IXMAX=   16   IYMAX=   16   IZMAX=   18
   IXMIN=  -17   IYMIN=  -17   IZMIN=  -18

 WARNING: aliasing errors must be expected set NGX to  68 to avoid them
 WARNING: aliasing errors must be expected set NGY to  68 to avoid them
 WARNING: aliasing errors must be expected set NGZ to  74 to avoid them
 aliasing errors are usually negligible using standard VASP settings
 and one can safely disregard these warnings

 real space projection operators:
  total allocation   :       6423.50 KBytes
  max/ min on nodes  :       1654.62       1554.62


 parallel 3D FFT for wavefunctions:
    minimum data exchange during FFTs selected (reduces bandwidth)
 parallel 3D FFT for charge:
    minimum data exchange during FFTs selected (reduces bandwidth)


 FFT grid for exact exchange (Hartree Fock) 
  NGX = 36; NGY = 36; NGZ = 40


 Radii for the augmentation spheres in the non-local exchange
 for species   1 augmentation radius   1.405 (default was   1.041)
       energy cutoff for augmentation   2000.0
 for species   2 augmentation radius   0.957 (default was   0.709)
       energy cutoff for augmentation   2000.0

 real space projection operators:
  total allocation   :       2800.12 KBytes
  max/ min on nodes  :        704.88        687.59

 Maximum index for augmentation-charges in exchange          219
  SETUP_FOCK is finished

 total amount of memory used by VASP on root node    80878. kBytes
========================================================================

   base      :      30000. kBytes
   nonlr-proj:       6288. kBytes
   fftplans  :       2478. kBytes
   grid      :       2306. kBytes
   one-center:         58. kBytes
   HF        :          9. kBytes
   wavefun   :      39739. kBytes

     INWAV:  cpu time   82.8706: real time   82.8787
 charge density for first step will be calculated from the start-wavefunctions


--------------------------------------------------------------------------------------------------------


 Maximum index for non-local projection operator          507
 Maximum index for augmentation-charges          138 (set IRDMAX)


--------------------------------------------------------------------------------------------------------


 initial charge from wavefunction
 First call to EWALD:  gamma=   0.196
 Maximum number of real-space cells 3x 3x 3
 Maximum number of reciprocal cells 3x 3x 3

 FEWALD executed in parallel
    FEWALD:  cpu time    0.0030: real time    0.0030


----------------------------------------- Iteration    1(   1)  ---------------------------------------


    POTLOK:  cpu time    0.0449: real time    0.0450
    SETDIJ:  cpu time    0.0532: real time    0.0532
     EDDAV:  cpu time  456.4244: real time  456.5083
       DOS:  cpu time    0.0078: real time    0.0078
    CHARGE:  cpu time    0.0220: real time    0.0220
    MIXING:  cpu time    0.0003: real time    0.0003
    --------------------------------------------
      LOOP:  cpu time  456.5552: real time  456.9429

 eigenvalue-minimisations  : 35616
 total energy-change (2. order) :-0.6420530E+03  (-0.1653110E-06)
 number of electron     292.0000044 magnetization 
 augmentation part        8.0435334 magnetization 

 Free energy of the ion-electron system (eV)
  ---------------------------------------------------
  alpha Z        PSCENC =       288.70895192
  Ewald energy   TEWEN  =    -10833.46352239
  -Hartree energ DENC   =     -2803.65407226
  -exchange      EXHF   =       869.38815703
  -V(xc)+E(xc)   XCENC  =      -155.09247398
  PAW double counting   =    161718.49468140  -160891.99842593
  entropy T*S    EENTRO =        -0.00000000
  eigenvalues    EBANDS =      -189.47859237
  atomic energy  EATOM  =     11355.04234567
  Solvation  Ediel_sol  =         0.00000000
  ---------------------------------------------------
  free energy    TOTEN  =      -642.05295092 eV

  energy without entropy =     -642.05295092  energy(sigma->0) =     -642.05295092
  exchange ACFDT corr.  =        -0.00000000  see jH, gK, PRB 81, 115126


--------------------------------------------------------------------------------------------------------




----------------------------------------- Iteration    1(   2)  ---------------------------------------


    POTLOK:  cpu time    0.0274: real time    0.0274
    SETDIJ:  cpu time    0.0473: real time    0.0473
     EDDAV:  cpu time  478.6608: real time  478.6977
       DOS:  cpu time    0.0068: real time    0.0068
    CHARGE:  cpu time    0.0220: real time    0.0220
    MIXING:  cpu time    0.0001: real time    0.0001
    --------------------------------------------
      LOOP:  cpu time  478.7656: real time  478.8389

 eigenvalue-minimisations  : 38752
 total energy-change (2. order) :-0.9361088E-08  (-0.2320416E-07)
 number of electron     292.0000044 magnetization 
 augmentation part        8.0435264 magnetization 

 Free energy of the ion-electron system (eV)
  ---------------------------------------------------
  alpha Z        PSCENC =       288.70895192
  Ewald energy   TEWEN  =    -10833.46352239
  -Hartree energ DENC   =     -2803.65354080
  -exchange      EXHF   =       869.38789979
  -V(xc)+E(xc)   XCENC  =      -155.09250456
  PAW double counting   =    161714.03245619  -160887.53617770
  entropy T*S    EENTRO =        -0.00000000
  eigenvalues    EBANDS =      -189.47885905
  atomic energy  EATOM  =     11355.04234567
  Solvation  Ediel_sol  =         0.00000000
  ---------------------------------------------------
  free energy    TOTEN  =      -642.05295093 eV

  energy without entropy =     -642.05295093  energy(sigma->0) =     -642.05295093
  exchange ACFDT corr.  =         0.00000000  see jH, gK, PRB 81, 115126


--------------------------------------------------------------------------------------------------------




----------------------------------------- Iteration    1(   3)  ---------------------------------------


    POTLOK:  cpu time    0.0268: real time    0.0268
    SETDIJ:  cpu time    0.0446: real time    0.0446
     EDDAV:  cpu time  486.1995: real time  486.2432
       DOS:  cpu time    0.0074: real time    0.0074
    CHARGE:  cpu time    0.0218: real time    0.0218
    MIXING:  cpu time    0.0001: real time    0.0001
    --------------------------------------------
      LOOP:  cpu time  486.3013: real time  486.3813

 eigenvalue-minimisations  : 39232
 total energy-change (2. order) : 0.1535852E-07  (-0.3810277E-08)
 number of electron     292.0000044 magnetization 
 augmentation part        8.0435242 magnetization 

 Free energy of the ion-electron system (eV)
  ---------------------------------------------------
  alpha Z        PSCENC =       288.70895192
  Ewald energy   TEWEN  =    -10833.46352239
  -Hartree energ DENC   =     -2803.65334524
  -exchange      EXHF   =       869.38794013
  -V(xc)+E(xc)   XCENC  =      -155.09251751
  PAW double counting   =    161709.62497952  -160883.12868430
  entropy T*S    EENTRO =        -0.00000000
  eigenvalues    EBANDS =      -189.47909871
  atomic energy  EATOM  =     11355.04234567
  Solvation  Ediel_sol  =         0.00000000
  ---------------------------------------------------
  free energy    TOTEN  =      -642.05295091 eV

  energy without entropy =     -642.05295091  energy(sigma->0) =     -642.05295091
  exchange ACFDT corr.  =         0.00000000  see jH, gK, PRB 81, 115126


--------------------------------------------------------------------------------------------------------




----------------------------------------- Iteration    1(   4)  ---------------------------------------


    POTLOK:  cpu time    0.0266: real time    0.0266
    SETDIJ:  cpu time    0.0428: real time    0.0428
     EDDAV:  cpu time  524.7424: real time  524.7851
       DOS:  cpu time    0.0072: real time    0.0072
    CHARGE:  cpu time    0.0221: real time    0.0221
    MIXING:  cpu time    0.0001: real time    0.0001
    --------------------------------------------
      LOOP:  cpu time  524.8422: real time  524.9207

 eigenvalue-minimisations  : 44064
 total energy-change (2. order) : 0.1518424E-07  (-0.1296683E-08)
 number of electron     292.0000044 magnetization 
 augmentation part        8.0435232 magnetization 

 Free energy of the ion-electron system (eV)
  ---------------------------------------------------
  alpha Z        PSCENC =       288.70895192
  Ewald energy   TEWEN  =    -10833.46352239
  -Hartree energ DENC   =     -2803.65329744
  -exchange      EXHF   =       869.38796621
  -V(xc)+E(xc)   XCENC  =      -155.09252187
  PAW double counting   =    161706.12529015  -160879.62898684
  entropy T*S    EENTRO =        -0.00000000
  eigenvalues    EBANDS =      -189.47917629
  atomic energy  EATOM  =     11355.04234567
  Solvation  Ediel_sol  =         0.00000000
  ---------------------------------------------------
  free energy    TOTEN  =      -642.05295090 eV

  energy without entropy =     -642.05295090  energy(sigma->0) =     -642.05295090
  exchange ACFDT corr.  =         0.00000000  see jH, gK, PRB 81, 115126


--------------------------------------------------------------------------------------------------------




----------------------------------------- Iteration    1(   5)  ---------------------------------------


    POTLOK:  cpu time    0.0265: real time    0.0265
    SETDIJ:  cpu time    0.0486: real time    0.0486
     EDDAV:  cpu time  480.5281: real time  480.5644
       DOS:  cpu time    0.0064: real time    0.0064
    CHARGE:  cpu time    0.0224: real time    0.0224
    MIXING:  cpu time    0.0001: real time    0.0001
    --------------------------------------------
      LOOP:  cpu time  480.6332: real time  480.7054

 eigenvalue-minimisations  : 39040
 total energy-change (2. order) : 0.9372911E-08  (-0.4893438E-09)
 number of electron     292.0000044 magnetization 
 augmentation part        8.0435223 magnetization 

 Free energy of the ion-electron system (eV)
  ---------------------------------------------------
  alpha Z        PSCENC =       288.70895192
  Ewald energy   TEWEN  =    -10833.46352239
  -Hartree energ DENC   =     -2803.65330513
  -exchange      EXHF   =       869.38797923
  -V(xc)+E(xc)   XCENC  =      -155.09252269
  PAW double counting   =    161703.70865542  -160877.21234732
  entropy T*S    EENTRO =        -0.00000000
  eigenvalues    EBANDS =      -189.47918559
  atomic energy  EATOM  =     11355.04234567
  Solvation  Ediel_sol  =         0.00000000
  ---------------------------------------------------
  free energy    TOTEN  =      -642.05295089 eV

  energy without entropy =     -642.05295089  energy(sigma->0) =     -642.05295089
  exchange ACFDT corr.  =         0.00000000  see jH, gK, PRB 81, 115126


--------------------------------------------------------------------------------------------------------




----------------------------------------- Iteration    1(   6)  ---------------------------------------


    POTLOK:  cpu time    0.0288: real time    0.0288
    SETDIJ:  cpu time    0.0407: real time    0.0407
     EDDAV:  cpu time  494.2246: real time  494.2640
       DOS:  cpu time    0.0064: real time    0.0064
    CHARGE:  cpu time    0.0220: real time    0.0220
    MIXING:  cpu time    0.0001: real time    0.0001
    --------------------------------------------
      LOOP:  cpu time  494.3237: real time  494.4036

 eigenvalue-minimisations  : 39776
 total energy-change (2. order) : 0.7363496E-08  (-0.1614895E-09)
 number of electron     292.0000044 magnetization 
 augmentation part        8.0435223 magnetization 

 Free energy of the ion-electron system (eV)
  ---------------------------------------------------
  alpha Z        PSCENC =       288.70895192
  Ewald energy   TEWEN  =    -10833.46352239
  -Hartree energ DENC   =     -2803.65327945
  -exchange      EXHF   =       869.38797459
  -V(xc)+E(xc)   XCENC  =      -155.09252471
  PAW double counting   =    161702.08456873  -160875.58825862
  entropy T*S    EENTRO =        -0.00000000
  eigenvalues    EBANDS =      -189.47920661
  atomic energy  EATOM  =     11355.04234567
  Solvation  Ediel_sol  =         0.00000000
  ---------------------------------------------------
  free energy    TOTEN  =      -642.05295088 eV

  energy without entropy =     -642.05295088  energy(sigma->0) =     -642.05295088
  exchange ACFDT corr.  =         0.00000000  see jH, gK, PRB 81, 115126


--------------------------------------------------------------------------------------------------------




----------------------------------------- Iteration    1(   7)  ---------------------------------------


    POTLOK:  cpu time    0.0266: real time    0.0266
    SETDIJ:  cpu time    0.0423: real time    0.0423
     EDDAV:  cpu time  404.1691: real time  404.1997
       DOS:  cpu time    0.0062: real time    0.0062
    CHARGE:  cpu time    0.0216: real time    0.0216
    MIXING:  cpu time    0.0001: real time    0.0001
    --------------------------------------------
      LOOP:  cpu time  404.2670: real time  404.3336

 eigenvalue-minimisations  : 29696
 total energy-change (2. order) : 0.3729497E-08  (-0.8287520E-10)
 number of electron     292.0000044 magnetization 
 augmentation part        8.0435225 magnetization 

 Free energy of the ion-electron system (eV)
  ---------------------------------------------------
  alpha Z        PSCENC =       288.70895192
  Ewald energy   TEWEN  =    -10833.46352239
  -Hartree energ DENC   =     -2803.65325702
  -exchange      EXHF   =       869.38797367
  -V(xc)+E(xc)   XCENC  =      -155.09252626
  PAW double counting   =    161701.15793065  -160874.66162020
  entropy T*S    EENTRO =        -0.00000000
  eigenvalues    EBANDS =      -189.47922690
  atomic energy  EATOM  =     11355.04234567
  Solvation  Ediel_sol  =         0.00000000
  ---------------------------------------------------
  free energy    TOTEN  =      -642.05295088 eV

  energy without entropy =     -642.05295088  energy(sigma->0) =     -642.05295088
  exchange ACFDT corr.  =        -0.00000000  see jH, gK, PRB 81, 115126


--------------------------------------------------------------------------------------------------------




----------------------------------------- Iteration    1(   8)  ---------------------------------------


    POTLOK:  cpu time    0.0264: real time    0.0264
    SETDIJ:  cpu time    0.0429: real time    0.0429
     EDDAV:  cpu time  354.2896: real time  354.3168
       DOS:  cpu time    0.0063: real time    0.0063
    --------------------------------------------
      LOOP:  cpu time  354.3663: real time  354.4290

 eigenvalue-minimisations  : 24192
 total energy-change (2. order) : 0.2180968E-08  (-0.4958104E-10)
 number of electron     292.0000044 magnetization 
 augmentation part        8.0435225 magnetization 

 Free energy of the ion-electron system (eV)
  ---------------------------------------------------
  alpha Z        PSCENC =       288.70895192
  Ewald energy   TEWEN  =    -10833.46352239
  -Hartree energ DENC   =     -2803.65323636
  -exchange      EXHF   =       869.38797265
  -V(xc)+E(xc)   XCENC  =      -155.09252752
  PAW double counting   =    161700.66749379  -160874.17118426
  entropy T*S    EENTRO =        -0.00000000
  eigenvalues    EBANDS =      -189.47924437
  atomic energy  EATOM  =     11355.04234567
  Solvation  Ediel_sol  =         0.00000000
  ---------------------------------------------------
  free energy    TOTEN  =      -642.05295087 eV

  energy without entropy =     -642.05295087  energy(sigma->0) =     -642.05295087
  exchange ACFDT corr.  =         0.00000000  see jH, gK, PRB 81, 115126


--------------------------------------------------------------------------------------------------------




 average (electrostatic) potential at core
  the test charge radii are     1.0406  0.7089
  (the norm of the test charge is              1.0000)
       1 -64.6289       2 -66.0564       3 -66.1365       4 -65.9958       5 -65.8844
       6 -66.0594       7 -66.1355       8 -65.8526       9 -66.4212      10 -66.0014
      11 -65.8935      12 -65.9958      13 -65.8844      14 -65.8551      15 -66.4152
      16 -65.8526      17 -66.4213      18 -66.0564      19 -66.1365      20 -65.9676
      21 -65.8304      22 -66.2228      23 -65.9845      24 -66.2251      25 -65.9845
      26 -66.2581      27 -65.7612      28 -66.2562      29 -65.7652      30 -66.2228
      31 -65.9844      32 -65.9618      33 -65.8311      34 -66.2581      35 -65.7613
      36 -65.9676      37 -65.8304      38 -53.0433      39 -52.8354      40 -53.1010
      41 -52.6722      42 -53.0450      43 -52.8383      44 -53.1340      45 -52.3520
      46 -53.0954      47 -52.6778      48 -53.1010      49 -52.6721      50 -53.1292
      51 -52.3504      52 -53.1340      53 -52.3520      54 -53.0433      55 -52.8354
      56 -52.7746      57 -53.0235      58 -53.0008      59 -52.9283      60 -53.0016
      61 -52.9226      62 -52.8782      63 -52.9684      64 -52.8776      65 -52.9949
      66 -53.0008      67 -52.9283      68 -52.7716      69 -53.0253      70 -52.8782
      71 -52.9685      72 -52.7745      73 -53.0235



 E-fermi :  10.1896     XC(G=0):  -8.4881     alpha+bet :-16.4994


 k-point     1 :       0.0000    0.0000    0.0000
  band No.  band energies     occupation 
      1     -12.1642      2.00000
      2     -11.1757      2.00000
      3     -11.1089      2.00000
      4     -10.8450      2.00000
      5     -10.8445      2.00000
      6     -10.7794      2.00000
      7     -10.7400      2.00000
      8     -10.7391      2.00000
      9     -10.7272      2.00000
     10     -10.0874      2.00000
     11     -10.0553      2.00000
     12     -10.0552      2.00000
     13     -10.0432      2.00000
     14     -10.0294      2.00000
     15     -10.0278      2.00000
     16      -9.9995      2.00000
     17      -9.9986      2.00000
     18      -9.9604      2.00000
     19      -9.9390      2.00000
     20      -9.9379      2.00000
     21      -9.9008      2.00000
     22      -9.6581      2.00000
     23      -9.4946      2.00000
     24      -9.4938      2.00000
     25      -9.3408      2.00000
     26      -9.3395      2.00000
     27      -9.2822      2.00000
     28      -9.2803      2.00000
     29      -9.1699      2.00000
     30      -9.1691      2.00000
     31      -9.1268      2.00000
     32      -9.0491      2.00000
     33      -9.0461      2.00000
     34      -9.0085      2.00000
     35      -8.9825      2.00000
     36      -8.9798      2.00000
     37      -1.6424      2.00000
     38      -1.0131      2.00000
     39      -0.4462      2.00000
     40      -0.4003      2.00000
     41      -0.3959      2.00000
     42      -0.3198      2.00000
     43      -0.3182      2.00000
     44      -0.2896      2.00000
     45      -0.2889      2.00000
     46      -0.2880      2.00000
     47      -0.2679      2.00000
     48      -0.2636      2.00000
     49      -0.2388      2.00000
     50      -0.2383      2.00000
     51      -0.1944      2.00000
     52      -0.1941      2.00000
     53      -0.1325      2.00000
     54      -0.1324      2.00000
     55      -0.1266      2.00000
     56      -0.0394      2.00000
     57       0.0748      2.00000
     58       0.1203      2.00000
     59       0.1209      2.00000
     60       0.1502      2.00000
     61       0.1515      2.00000
     62       0.1545      2.00000
     63       0.2598      2.00000
     64       0.2830      2.00000
     65       0.2854      2.00000
     66       0.3231      2.00000
     67       0.3238      2.00000
     68       0.6587      2.00000
     69       0.8177      2.00000
     70       0.8221      2.00000
     71       0.8396      2.00000
[...]
   0.339E+01 -.195E+01 0.299E+01   -.317E+01 0.183E+01 -.151E+01   -.208E+00 0.120E+00 -.145E+01   0.514E-06 -.267E-06 0.348E-05
   0.196E+01 -.113E+01 -.460E+01   -.110E+01 0.635E+00 0.342E+01   -.852E+00 0.492E+00 0.114E+01   0.146E-05 -.812E-06 -.342E-05
   -.609E-02 0.386E+01 0.324E+01   0.117E-01 -.364E+01 -.172E+01   -.263E-02 -.219E+00 -.149E+01   -.173E-06 0.580E-06 0.320E-05
   -.274E+00 0.242E+01 -.502E+01   0.231E+00 -.137E+01 0.376E+01   0.406E-01 -.104E+01 0.122E+01   -.312E-06 0.142E-05 -.313E-05
   0.365E+01 -.211E+01 0.853E+01   -.289E+01 0.167E+01 -.508E+01   -.745E+00 0.430E+00 -.337E+01   -.898E-06 0.487E-06 0.407E-05
   0.198E+01 -.114E+01 0.333E+01   -.294E+01 0.169E+01 -.896E+00   0.958E+00 -.553E+00 -.237E+01   -.153E-05 0.837E-06 -.294E-05
   0.439E-01 0.421E+01 0.857E+01   -.428E-01 -.334E+01 -.515E+01   -.263E-02 -.862E+00 -.336E+01   0.866E-07 -.792E-06 0.398E-05
   -.112E+00 0.213E+01 0.293E+01   0.103E+00 -.304E+01 -.590E+00   0.648E-02 0.920E+00 -.228E+01   -.248E-07 -.165E-05 -.287E-05
   0.626E+01 0.372E+01 -.407E+01   -.530E+01 -.314E+01 0.395E+01   -.948E+00 -.573E+00 0.107E+00   -.411E-06 -.411E-06 0.344E-05
   0.255E+00 -.990E-02 0.394E+01   -.146E+00 0.625E-01 -.329E+01   -.109E+00 -.515E-01 -.649E+00   -.874E-06 -.587E-06 -.315E-05
   0.350E+01 0.211E+01 0.730E+01   -.248E+01 -.150E+01 -.590E+01   -.101E+01 -.605E+00 -.139E+01   0.125E-05 0.254E-06 0.147E-05
   0.239E+01 0.127E+01 -.124E+02   -.132E+01 -.658E+00 0.105E+02   -.104E+01 -.586E+00 0.190E+01   0.147E-05 0.703E-06 -.202E-05
   0.735E-01 -.297E+01 0.303E+01   -.574E-01 0.280E+01 -.228E+01   -.110E-01 0.170E+00 -.734E+00   -.115E-06 0.925E-06 0.126E-05
   -.360E-01 -.168E+01 -.250E+01   0.418E-01 0.159E+01 0.240E+01   -.793E-02 0.817E-01 0.843E-01   0.401E-07 0.643E-06 -.145E-05
   -.262E+01 0.151E+01 0.305E+01   0.246E+01 -.142E+01 -.230E+01   0.159E+00 -.920E-01 -.741E+00   0.498E-06 -.258E-06 0.117E-05
   -.141E+01 0.813E+00 -.247E+01   0.136E+01 -.785E+00 0.237E+01   0.551E-01 -.318E-01 0.103E+00   0.410E-06 -.229E-06 -.138E-05
   0.535E-01 -.644E+00 0.143E+02   -.471E-01 0.153E+00 -.119E+02   -.699E-02 0.479E+00 -.231E+01   -.384E-06 0.526E-06 0.616E-06
   -.167E+00 0.301E+01 0.162E+00   0.148E+00 -.114E+01 0.789E+00   0.238E-01 -.185E+01 -.953E+00   -.741E-07 0.386E-06 -.822E-06
   -.552E+00 0.318E+00 0.141E+02   0.124E+00 -.718E-01 -.117E+02   0.416E+00 -.240E+00 -.232E+01   0.768E-06 -.448E-06 0.514E-06
   0.284E+01 -.164E+01 -.268E+00   -.113E+01 0.654E+00 0.112E+01   -.169E+01 0.978E+00 -.857E+00   0.318E-06 -.184E-06 -.691E-06
   0.261E+01 0.142E+01 0.303E+01   -.245E+01 -.135E+01 -.228E+01   -.153E+00 -.754E-01 -.734E+00   -.845E-06 -.332E-06 0.126E-05
   0.144E+01 0.871E+00 -.250E+01   -.136E+01 -.833E+00 0.240E+01   -.747E-01 -.340E-01 0.843E-01   -.527E-06 -.340E-06 -.143E-05
   -.375E+01 0.216E+01 0.739E+01   0.267E+01 -.154E+01 -.598E+01   0.106E+01 -.612E+00 -.139E+01   -.854E-06 0.455E-06 0.140E-05
   -.228E+01 0.132E+01 -.126E+02   0.122E+01 -.702E+00 0.107E+02   0.104E+01 -.599E+00 0.191E+01   -.139E-05 0.788E-06 -.201E-05
   0.584E+00 0.275E+00 0.143E+02   -.156E+00 -.356E-01 -.119E+02   -.418E+00 -.233E+00 -.231E+01   -.658E-06 0.476E-07 0.605E-06
   -.269E+01 -.136E+01 0.162E+00   0.106E+01 0.442E+00 0.789E+00   0.162E+01 0.905E+00 -.953E+00   -.375E-06 -.129E-06 -.854E-06
   -.770E-01 -.409E+01 0.730E+01   0.554E-01 0.290E+01 -.590E+01   0.201E-01 0.118E+01 -.139E+01   0.371E-06 -.118E-05 0.149E-05
   0.916E-01 -.270E+01 -.124E+02   -.921E-01 0.148E+01 0.105E+02   -.133E-01 0.119E+01 0.190E+01   0.112E-06 -.162E-05 -.204E-05
   0.471E-01 -.565E+01 0.788E+01   -.514E-01 0.623E+01 -.855E+01   0.434E-02 -.512E+00 0.596E+00   0.170E-06 0.769E-06 0.826E-07
   0.147E-01 -.154E+01 -.734E+01   -.212E-01 0.138E+01 0.785E+01   0.116E-01 0.128E+00 -.477E+00   0.807E-07 0.587E-06 -.180E-06
   -.166E+00 -.332E-01 0.445E+01   0.816E-01 -.179E-01 -.489E+01   0.777E-01 0.472E-01 0.379E+00   -.520E-06 0.206E-05 -.249E-06
   -.140E+01 -.661E+00 -.674E+01   0.414E+00 0.750E-01 0.831E+01   0.899E+00 0.536E+00 -.141E+01   -.285E-06 -.440E-07 0.857E-06
   -.484E+01 0.279E+01 0.771E+01   0.532E+01 -.307E+01 -.837E+01   -.430E+00 0.248E+00 0.590E+00   0.270E-05 -.156E-05 0.724E-06
   -.130E+01 0.751E+00 -.715E+01   0.117E+01 -.678E+00 0.764E+01   0.110E+00 -.633E-01 -.460E+00   0.565E-06 -.357E-06 -.163E-06
   -.613E+01 -.349E+01 0.926E+01   0.642E+01 0.369E+01 -.616E+01   -.289E+00 -.186E+00 -.278E+01   0.216E-05 0.736E-06 -.739E-07
   0.133E+00 -.149E+00 -.977E+01   -.216E+00 0.128E+00 0.103E+02   0.295E-01 -.635E-02 -.507E+00   -.105E-06 -.210E-06 0.151E-06
   0.287E+00 -.166E+00 0.440E+01   -.223E+00 0.129E+00 -.482E+01   -.596E-01 0.344E-01 0.362E+00   0.505E-06 -.263E-06 -.829E-06
   0.111E+01 -.643E+00 -.684E+01   -.673E-01 0.389E-01 0.839E+01   -.950E+00 0.549E+00 -.140E+01   0.227E-06 -.730E-07 0.884E-06
   -.541E-01 0.160E+00 0.445E+01   0.564E-01 -.616E-01 -.489E+01   -.202E-02 -.909E-01 0.379E+00   -.201E-05 -.508E-06 -.181E-06
   -.128E+00 0.154E+01 -.674E+01   0.142E+00 -.396E+00 0.831E+01   -.144E-01 -.105E+01 -.141E+01   -.394E-07 0.195E-06 0.815E-06
   0.608E+01 -.351E+01 0.959E+01   -.637E+01 0.368E+01 -.644E+01   0.276E+00 -.159E+00 -.282E+01   -.222E-05 0.126E-05 -.713E-07
   -.522E-01 0.303E-01 -.994E+01   0.112E+00 -.645E-01 0.105E+02   -.114E-01 0.659E-02 -.506E+00   -.309E-07 0.109E-07 0.473E-06
   -.370E-01 0.705E+01 0.926E+01   0.194E-01 -.741E+01 -.616E+01   0.164E-01 0.343E+00 -.278E+01   0.363E-06 -.226E-05 -.113E-06
   0.196E+00 -.409E-01 -.977E+01   -.219E+00 0.123E+00 0.103E+02   0.202E-01 -.224E-01 -.507E+00   0.240E-07 0.284E-06 0.204E-06
   0.492E+01 0.278E+01 0.788E+01   -.542E+01 -.307E+01 -.855E+01   0.446E+00 0.252E+00 0.596E+00   -.652E-06 -.494E-06 0.746E-07
   0.134E+01 0.756E+00 -.734E+01   -.121E+01 -.673E+00 0.785E+01   -.105E+00 -.739E-01 -.477E+00   -.505E-06 -.541E-06 -.160E-06
   0.282E+00 0.158E+00 -.248E+01   -.511E+00 -.277E+00 0.340E+01   0.201E+00 0.102E+00 -.835E+00   0.156E-05 0.456E-06 0.492E-05
   -.328E+01 -.214E+01 0.359E+01   0.399E+01 0.258E+01 -.456E+01   -.643E+00 -.401E+00 0.858E+00   0.187E-05 0.897E-06 -.507E-05
   -.539E-01 -.290E+01 0.708E+00   0.619E-01 0.245E+01 -.569E+00   -.707E-02 0.398E+00 -.132E+00   -.711E-07 0.127E-05 0.477E-05
   -.355E-01 0.175E+01 0.882E+00   0.499E-01 -.240E+01 -.138E+01   -.160E-01 0.587E+00 0.434E+00   0.220E-08 0.166E-05 -.476E-05
   -.247E+01 0.142E+01 0.781E+00   0.207E+01 -.120E+01 -.641E+00   0.354E+00 -.204E+00 -.133E+00   0.897E-06 -.436E-06 0.226E-05
   0.141E+01 -.811E+00 0.837E+00   -.198E+01 0.114E+01 -.135E+01   0.516E+00 -.298E+00 0.447E+00   0.121E-05 -.655E-06 -.409E-05
   0.601E-01 0.185E+01 -.279E+01   -.630E-01 -.152E+01 0.415E+01   0.139E-02 -.285E+00 -.124E+01   -.418E-06 0.577E-07 0.483E-05
   -.459E+00 0.142E+02 -.513E+01   0.531E+00 -.157E+02 0.436E+01   -.673E-01 0.122E+01 0.674E+00   -.276E-06 -.165E-05 -.449E-05
   0.159E+01 -.917E+00 -.285E+01   -.131E+01 0.756E+00 0.420E+01   -.247E+00 0.142E+00 -.123E+01   0.314E-06 -.268E-06 0.497E-05
   0.126E+02 -.729E+01 -.481E+01   -.140E+02 0.808E+01 0.399E+01   0.113E+01 -.654E+00 0.719E+00   -.131E-05 0.676E-06 -.432E-05
   0.248E+01 0.150E+01 0.708E+00   -.209E+01 -.128E+01 -.569E+00   -.349E+00 -.193E+00 -.132E+00   -.107E-05 -.563E-06 0.486E-05
   -.153E+01 -.842E+00 0.882E+00   0.210E+01 0.116E+01 -.138E+01   -.516E+00 -.280E+00 0.434E+00   -.142E-05 -.729E-06 -.472E-05
   -.308E+00 0.178E+00 -.260E+01   0.511E+00 -.295E+00 0.356E+01   -.175E+00 0.101E+00 -.872E+00   -.112E-05 0.590E-06 0.501E-05
   0.374E+01 -.216E+01 0.360E+01   -.451E+01 0.261E+01 -.458E+01   0.703E+00 -.406E+00 0.873E+00   -.162E-05 0.838E-06 -.503E-05
   -.157E+01 -.975E+00 -.279E+01   0.129E+01 0.817E+00 0.415E+01   0.247E+00 0.141E+00 -.124E+01   -.202E-06 0.340E-06 0.484E-05
   -.125E+02 -.671E+01 -.513E+01   0.139E+02 0.739E+01 0.436E+01   -.109E+01 -.549E+00 0.674E+00   0.123E-05 0.982E-06 -.437E-05
   0.432E-02 -.323E+00 -.248E+01   -.155E-01 0.581E+00 0.340E+01   0.127E-01 -.225E+00 -.835E+00   0.330E-06 -.152E-05 0.489E-05
   0.212E+00 0.391E+01 0.359E+01   -.239E+00 -.475E+01 -.456E+01   0.256E-01 0.757E+00 0.858E+00   0.199E-06 -.204E-05 -.507E-05
 -----------------------------------------------------------------------------------------------
   -.382E+00 0.222E+00 0.402E+02   0.452E-13 0.178E-13 0.329E-13   0.357E+00 -.206E+00 -.389E+02   0.417E-06 -.481E-06 0.299E-06


 POSITION                                       TOTAL-FORCE (eV/Angst)
 -----------------------------------------------------------------------------------
      4.64752      2.67874      8.88256              NaN           NaN           NaN
     -0.00021      1.78202      4.98436              NaN           NaN           NaN
     -0.00087      1.79208      9.88628              NaN           NaN           NaN
     -1.53843      4.47439      4.92575              NaN           NaN           NaN
     -1.52093      4.48385      9.86539              NaN           NaN           NaN
     -3.10114      7.15241      4.98265              NaN           NaN           NaN
     -3.09142      7.14680      9.88522              NaN           NaN           NaN
      3.05541      1.76488      4.84742              NaN           NaN           NaN
      3.05897      1.76244      0.21671              NaN           NaN           NaN
      1.53857      4.47367      4.92757              NaN           NaN           NaN
      1.52299      4.48267      9.86728              NaN           NaN           NaN
     -0.00055      7.13808      4.92575              NaN           NaN           NaN
      0.00001      7.11819      9.86539              NaN           NaN           NaN
      6.23063      1.76471      4.84625              NaN           NaN           NaN
      6.22752      1.76651      0.22355              NaN           NaN           NaN
      4.64288      4.51445      4.84742              NaN           NaN           NaN
      4.64677      4.51259      0.21671              NaN           NaN           NaN
      3.10023      7.15212      4.98436              NaN           NaN           NaN
      3.09118      7.14767      9.88628              NaN           NaN           NaN
      1.48803      0.85928      2.50699              NaN           NaN           NaN
      1.55444      0.89728      7.43270              NaN           NaN           NaN
     -0.00049      3.56941      2.45220              NaN           NaN           NaN
      0.00057      3.58193      7.40262              NaN           NaN           NaN
     -1.55232      6.25820      2.45114              NaN           NaN           NaN
     -1.54187      6.25217      7.40162              NaN           NaN           NaN
      4.64338      0.88577      2.48306              NaN           NaN           NaN
      4.64253      0.96877      7.24845              NaN           NaN           NaN
      3.08749      3.57941      2.48284              NaN           NaN           NaN
      3.16450      3.53494      7.25311              NaN           NaN           NaN
      1.55216      6.25867      2.45220              NaN           NaN           NaN
      1.54185      6.25149      7.40262              NaN           NaN           NaN
      7.80129      0.85789      2.51005              NaN           NaN           NaN
      7.73131      0.89829      7.43324              NaN           NaN           NaN
      6.19819      3.57878      2.48306              NaN           NaN           NaN
      6.12589      3.53802      7.24845              NaN           NaN           NaN
      4.64345      6.32465      2.50699              NaN           NaN           NaN
      4.64375      6.24812      7.43270              NaN           NaN           NaN
      0.00002      1.78829      1.86567              NaN           NaN           NaN
     -0.00069      1.78433      6.87274              NaN           NaN           NaN
     -1.54811      4.46819      1.86200              NaN           NaN           NaN
     -1.54093      4.47189      6.78863              NaN           NaN           NaN
     -3.09491      7.14882      1.86479              NaN           NaN           NaN
     -3.09873      7.15102      6.87142              NaN           NaN           NaN
      3.03123      1.75090      2.04640              NaN           NaN           NaN
      2.98667      1.72458      6.67157              NaN           NaN           NaN
      1.54660      4.46904      1.86345              NaN           NaN           NaN
      1.54427      4.47038      6.79181              NaN           NaN           NaN
     -0.00002      7.14956      1.86200              NaN           NaN           NaN
      0.00037      7.14150      6.78863              NaN           NaN           NaN
      6.25804      1.74889      2.05269              NaN           NaN           NaN
      6.29895      1.72527      6.67132              NaN           NaN           NaN
      4.64289      4.54238      2.04640              NaN           NaN           NaN
      4.64341      4.59413      6.67157              NaN           NaN           NaN
      3.09490      7.14879      1.86567              NaN           NaN           NaN
      3.09798      7.15138      6.87274              NaN           NaN           NaN
      1.49464      0.86362      4.35336              NaN           NaN           NaN
      1.56104      0.90188      9.34834              NaN           NaN           NaN
      0.00000      3.56184      4.33748              NaN           NaN           NaN
      0.00106      3.57462      9.30260              NaN           NaN           NaN
     -1.55963      6.26242      4.33619              NaN           NaN           NaN
     -1.54787      6.25563      9.30181              NaN           NaN           NaN
      4.64272      0.87783      4.34595              NaN           NaN           NaN
      4.63941      0.77766      9.21642              NaN           NaN           NaN
      3.08175      3.58272      4.34539              NaN           NaN           NaN
      3.00190      3.62882      9.22675              NaN           NaN           NaN
      1.55895      6.26203      4.33748              NaN           NaN           NaN
      1.54842      6.25472      9.30260              NaN           NaN           NaN
      7.79248      0.86298      4.35586              NaN           NaN           NaN
      7.72247      0.90340      9.34972              NaN           NaN           NaN
      6.20474      3.58333      4.34595              NaN           NaN           NaN
      6.28984      3.63628      9.21642              NaN           NaN           NaN
      4.64300      6.31675      4.35336              NaN           NaN           NaN
      4.64307      6.24011      9.34834              NaN           NaN           NaN
 -----------------------------------------------------------------------------------
    total drift:                                     NaN           NaN           NaN


--------------------------------------------------------------------------------------------------------



  FREE ENERGIE OF THE ION-ELECTRON SYSTEM (eV)
  ---------------------------------------------------
  free  energy   TOTEN  =      -642.05295087 eV

  energy  without entropy=     -642.05295087  energy(sigma->0) =     -642.05295087



--------------------------------------------------------------------------------------------------------


    POTLOK:  cpu time    0.0810: real time    0.0813


--------------------------------------------------------------------------------------------------------


     LOOP+:  cpu time 4000.9298: real time 4001.8671
    4ORBIT:  cpu time    0.0000: real time    0.0000



 total charge     

# of ion     s       p       d       tot
----------------------------------------
  1        0.615   0.624   0.000   1.238
  2        0.451   0.476   0.000   0.927
  3        0.451   0.475   0.000   0.925
  4        0.453   0.479   0.000   0.933
  5        0.457   0.491   0.000   0.947
  6        0.451   0.476   0.000   0.927
  7        0.451   0.475   0.000   0.926
  8        0.453   0.484   0.000   0.937
  9        0.453   0.464   0.000   0.917
 10        0.453   0.479   0.000   0.932
 11        0.458   0.490   0.000   0.948
 12        0.453   0.479   0.000   0.933
 13        0.459   0.492   0.000   0.950
 14        0.453   0.483   0.000   0.936
 15        0.453   0.463   0.000   0.916
 16        0.453   0.484   0.000   0.937
 17        0.451   0.463   0.000   0.914
 18        0.452   0.476   0.000   0.927
 19        0.450   0.475   0.000   0.925
 20        0.463   0.500   0.000   0.962
 21        0.453   0.480   0.000   0.934
 22        0.450   0.472   0.000   0.922
 23        0.449   0.469   0.000   0.918
 24        0.450   0.472   0.000   0.922
 25        0.449   0.469   0.000   0.918
 26        0.449   0.475   0.000   0.924
 27        0.431   0.454   0.000   0.886
 28        0.449   0.475   0.000   0.925
 29        0.431   0.454   0.000   0.885
 30        0.450   0.472   0.000   0.922
 31        0.449   0.469   0.000   0.918
 32        0.463   0.500   0.000   0.963
 33        0.453   0.480   0.000   0.933
 34        0.449   0.475   0.000   0.924
 35        0.431   0.454   0.000   0.885
 36        0.463   0.500   0.000   0.963
 37        0.454   0.481   0.000   0.934
 38        1.227   2.680   0.000   3.907
 39        1.226   2.675   0.000   3.902
 40        1.226   2.662   0.000   3.887
 41        1.227   2.664   0.000   3.890
 42        1.227   2.680   0.000   3.907
 43        1.226   2.675   0.000   3.902
 44        1.236   2.689   0.000   3.926
 45        1.236   2.684   0.000   3.920
 46        1.226   2.662   0.000   3.888
 47        1.226   2.663   0.000   3.889
 48        1.226   2.661   0.000   3.887
 49        1.227   2.663   0.000   3.890
 50        1.237   2.689   0.000   3.926
 51        1.236   2.682   0.000   3.918
 52        1.237   2.688   0.000   3.925
 53        1.237   2.681   0.000   3.918
 54        1.227   2.680   0.000   3.907
 55        1.227   2.675   0.000   3.902
 56        1.230   2.698   0.000   3.928
 57        1.225   2.659   0.000   3.884
 58        1.225   2.666   0.000   3.891
 59        1.227   2.679   0.000   3.906
 60        1.226   2.666   0.000   3.892
 61        1.228   2.679   0.000   3.907
 62        1.227   2.680   0.000   3.907
 63        1.255   2.601   0.000   3.856
 64        1.227   2.680   0.000   3.907
 65        1.252   2.601   0.000   3.853
 66        1.226   2.666   0.000   3.892
 67        1.228   2.679   0.000   3.907
 68        1.231   2.697   0.000   3.928
 69        1.225   2.659   0.000   3.884
 70        1.227   2.679   0.000   3.906
 71        1.250   2.602   0.000   3.852
 72        1.231   2.696   0.000   3.926
 73        1.225   2.660   0.000   3.885
------------------------------------------------
tot       61.153 113.878   0.000 175.031


 total amount of memory used by VASP on root node    90490. kBytes
========================================================================

   base      :      30000. kBytes
   nonlr-proj:      15900. kBytes
   fftplans  :       2478. kBytes
   grid      :       2306. kBytes
   one-center:         58. kBytes
   HF        :          9. kBytes
   wavefun   :      39739. kBytes

  
  
 General timing and accounting informations for this job:
 ========================================================
  
                  Total CPU time used (sec):     4112.492
                            User time (sec):     4103.392
                          System time (sec):        9.099
                         Elapsed time (sec):     4119.243
  
                   Maximum memory used (kb):      522312.
                   Average memory used (kb):           0.
  
                          Minor page faults:        50557
                          Major page faults:         1117
                 Voluntary context switches:         1102
