       N       E                     dE             d eps       ncg     rms          rms(c)
DAV:   1    -0.676315076569E+03   -0.67632E+03   -0.56080E-05 36544   0.126E-02    0.968E-02
DAV:   2    -0.676315076704E+03   -0.13475E-06   -0.23933E-06 38144   0.321E-03    0.627E-02
DAV:   3    -0.676315076587E+03    0.11643E-06   -0.35749E-07 38816   0.162E-03    0.405E-02
DAV:   4    -0.676315076511E+03    0.76761E-07   -0.10798E-07 43200   0.895E-04    0.260E-02
DAV:   5    -0.676315076455E+03    0.55543E-07   -0.27302E-08 38528   0.483E-04    0.167E-02
DAV:   6    -0.676315076417E+03    0.37718E-07   -0.12195E-08 30176   0.320E-04    0.103E-02
DAV:   7    -0.676315076394E+03    0.23072E-07   -0.41668E-09 23552   0.230E-04    0.630E-03
DAV:   8    -0.676315076381E+03    0.13704E-07   -0.19322E-09 23616   0.169E-04
   1 F= -.67631508E+03 E0= -.67631508E+03  d E =-.431615E-36
