 vasp.5.4.1 24Jun15 (build Oct 18 2022 00:58:31) complex                         
 executed on        GCC_CrayMPICH date 2023.12.19  11:41:58
 running on 1024 total cores
 distrk:  each k-point on   64 cores,   16 groups
 distr:  one band on NCORES_PER_BAND=   2 cores,   32 groups


--------------------------------------------------------------------------------------------------------


 INCAR:
 POTCAR:    PAW_PBE Si 05Jan2001                  
 POTCAR:    PAW_PBE Al 04Jan2001                  
 POTCAR:    PAW_PBE N 08Apr2002                   

 ----------------------------------------------------------------------------- 
|                                                                             |
|           W    W    AA    RRRRR   N    N  II  N    N   GGGG   !!!           |
|           W    W   A  A   R    R  NN   N  II  NN   N  G    G  !!!           |
|           W    W  A    A  R    R  N N  N  II  N N  N  G       !!!           |
|           W WW W  AAAAAA  RRRRR   N  N N  II  N  N N  G  GGG   !            |
|           WW  WW  A    A  R   R   N   NN  II  N   NN  G    G                |
|           W    W  A    A  R    R  N    N  II  N    N   GGGG   !!!           |
|                                                                             |
|      For optimal performance we recommend to set                            |
|        NCORE= 4 - approx SQRT( number of cores)                             |
|      NCORE specifies how many cores store one orbital (NPAR=cpu/NCORE).     |
|      This setting can  greatly improve the performance of VASP for DFT.     |
|      The default, NPAR=number of cores might be grossly inefficient         |
|      on modern multi-core architectures or massively parallel machines.     |
|      Do your own testing !!!!                                               |
|      Unfortunately you need to use the default for GW and RPA calculations. |
|      (for HF NCORE is supported but not extensively tested yet)             |
|                                                                             |
 ----------------------------------------------------------------------------- 


 ----------------------------------------------------------------------------- 
|                                                                             |
|           W    W    AA    RRRRR   N    N  II  N    N   GGGG   !!!           |
|           W    W   A  A   R    R  NN   N  II  NN   N  G    G  !!!           |
|           W    W  A    A  R    R  N N  N  II  N N  N  G       !!!           |
|           W WW W  AAAAAA  RRRRR   N  N N  II  N  N N  G  GGG   !            |
|           WW  WW  A    A  R   R   N   NN  II  N   NN  G    G                |
|           W    W  A    A  R    R  N    N  II  N    N   GGGG   !!!           |
|                                                                             |
|      You have enabled k-point parallelism (KPAR>1).                         |
|      This developmental code was originally  written by Paul Kent at ORNL,  |
|      and carefully double checked in Vienna.                                |
|      GW as well as linear response parallelism added by Martijn Marsman     |
|      and Georg Kresse.                                                      |
|      Carefully verify results versus KPAR=1.                                |
|      Report problems to Paul Kent and Vienna.                               |
|                                                                             |
 ----------------------------------------------------------------------------- 

 POTCAR:    PAW_PBE Si 05Jan2001                  
   VRHFIN =Si: s2p2                                                             
   LEXCH  = PE                                                                  
   EATOM  =   103.0669 eV,    7.5752 Ry                                         
                                                                                
   TITEL  = PAW_PBE Si 05Jan2001                                                
   LULTRA =        F    use ultrasoft PP ?                                      
   IUNSCR =        1    unscreen: 0-lin 1-nonlin 2-no                           
   RPACOR =    1.500    partial core radius                                     
   POMASS =   28.085; ZVAL   =    4.000    mass and valenz                      
   RCORE  =    1.900    outmost cutoff radius                                   
   RWIGS  =    2.480; RWIGS  =    1.312    wigner-seitz radius (au A)           
   ENMAX  =  245.345; ENMIN  =  184.009 eV                                      
   ICORE  =        2    local potential                                         
   LCOR   =        T    correct aug charges                                     
   LPAW   =        T    paw PP                                                  
   EAUG   =  322.069                                                            
   DEXC   =    0.000                                                            
   RMAX   =    1.950    core radius for proj-oper                               
   RAUG   =    1.300    factor for augmentation sphere                          
   RDEP   =    1.993    radius for radial grids                                 
   RDEPT  =    1.837    core radius for aug-charge                              
                                                                                
   Atomic configuration                                                         
    6 entries                                                                   
     n  l   j            E        occ.                                          
     1  0  0.50     -1785.8828   2.0000                                         
     2  0  0.50      -139.4969   2.0000                                         
     2  1  1.50       -95.5546   6.0000                                         
     3  0  0.50       -10.8127   2.0000                                         
     3  1  0.50        -4.0811   2.0000                                         
     3  2  1.50        -4.0817   0.0000                                         
   Description                                                                  
     l       E           TYP  RCUT    TYP  RCUT                                 
     0    -10.8127223     23  1.900                                             
     0     -7.6451159     23  1.900                                             
     1     -4.0811372     23  1.900                                             
     1      2.4879257     23  1.900                                             
     2     -4.0817478      7  1.900                                             
  local pseudopotential read in
  partial core-charges read in
  partial kinetic energy density read in
  atomic valenz-charges read in
  non local Contribution for L=           0  read in
    real space projection operators read in
  non local Contribution for L=           0  read in
    real space projection operators read in
  non local Contribution for L=           1  read in
    real space projection operators read in
  non local Contribution for L=           1  read in
    real space projection operators read in
    PAW grid and wavefunctions read in

   number of l-projection  operators is LMAX  =           4
   number of lm-projection operators is LMMAX =           8

 POTCAR:    PAW_PBE Al 04Jan2001                  
   VRHFIN =Al: s2p1                                                             
   LEXCH  = PE                                                                  
   EATOM  =    53.5387 eV,    3.9350 Ry                                         
                                                                                
   TITEL  = PAW_PBE Al 04Jan2001                                                
   LULTRA =        F    use ultrasoft PP ?                                      
   IUNSCR =        1    unscreen: 0-lin 1-nonlin 2-no                           
   RPACOR =    1.500    partial core radius                                     
   POMASS =   26.981; ZVAL   =    3.000    mass and valenz                      
   RCORE  =    1.900    outmost cutoff radius                                   
   RWIGS  =    2.650; RWIGS  =    1.402    wigner-seitz radius (au A)           
   ENMAX  =  240.300; ENMIN  =  180.225 eV                                      
   ICORE  =        2    local potential                                         
   LCOR   =        T    correct aug charges                                     
   LPAW   =        T    paw PP                                                  
   EAUG   =  291.052                                                            
   DEXC   =    0.000                                                            
   RMAX   =    1.939    core radius for proj-oper                               
   RAUG   =    1.300    factor for augmentation sphere                          
   RDEP   =    1.966    radius for radial grids                                 
   RDEPT  =    1.856    core radius for aug-charge                              
                                                                                
   Atomic configuration                                                         
    6 entries                                                                   
     n  l   j            E        occ.                                          
     1  0  0.50     -1511.1048   2.0000                                         
     2  0  0.50      -108.1629   2.0000                                         
     2  1  1.50       -69.6402   6.0000                                         
     3  0  0.50        -7.7528   2.0000                                         
     3  1  1.50        -2.7121   1.0000                                         
     3  2  2.50        -2.7212   0.0000                                         
   Description                                                                  
     l       E           TYP  RCUT    TYP  RCUT                                 
     0     -7.7528455     23  1.900                                             
     0     -3.3096929     23  1.900                                             
     1     -2.7120682     23  1.900                                             
     1     13.6058260     23  1.900                                             
     2     -2.7211652      7  1.900                                             
  local pseudopotential read in
  partial core-charges read in
  partial kinetic energy density read in
  atomic valenz-charges read in
  non local Contribution for L=           0  read in
    real space projection operators read in
  non local Contribution for L=           0  read in
    real space projection operators read in
  non local Contribution for L=           1  read in
    real space projection operators read in
  non local Contribution for L=           1  read in
    real space projection operators read in
    PAW grid and wavefunctions read in

   number of l-projection  operators is LMAX  =           4
   number of lm-projection operators is LMMAX =           8

 POTCAR:    PAW_PBE N 08Apr2002                   
   VRHFIN =N: s2p3                                                              
   LEXCH  = PE                                                                  
   EATOM  =   264.5486 eV,   19.4438 Ry                                         
                                                                                
   TITEL  = PAW_PBE N 08Apr2002                                                 
   LULTRA =        F    use ultrasoft PP ?                                      
   IUNSCR =        1    unscreen: 0-lin 1-nonlin 2-no                           
   RPACOR =    1.200    partial core radius                                     
   POMASS =   14.001; ZVAL   =    5.000    mass and valenz                      
   RCORE  =    1.500    outmost cutoff radius                                   
   RWIGS  =    1.400; RWIGS  =    0.741    wigner-seitz radius (au A)           
   ENMAX  =  400.000; ENMIN  =  300.000 eV                                      
   ICORE  =        2    local potential                                         
   LCOR   =        T    correct aug charges                                     
   LPAW   =        T    paw PP                                                  
   EAUG   =  627.112                                                            
   DEXC   =    0.000                                                            
   RMAX   =    1.529    core radius for proj-oper                               
   RAUG   =    1.300    factor for augmentation sphere                          
   RDEP   =    1.514    radius for radial grids                                 
   RDEPT  =    1.338    core radius for aug-charge                              
                                                                                
   Atomic configuration                                                         
    4 entries                                                                   
     n  l   j            E        occ.                                          
     1  0  0.50      -384.7179   2.0000                                         
     2  0  0.50       -18.5828   2.0000                                         
     2  1  0.50        -7.0898   3.0000                                         
     3  2  1.50        -6.8029   0.0000                                         
   Description                                                                  
     l       E           TYP  RCUT    TYP  RCUT                                 
     0    -18.5828119     23  1.200                                             
     0    -13.5018863     23  1.200                                             
     1     -7.0897853     23  1.500                                             
     1      9.5240782     23  1.500                                             
     2     -6.8029130      7  1.500                                             
  local pseudopotential read in
  partial core-charges read in
  partial kinetic energy density read in
  atomic valenz-charges read in
  non local Contribution for L=           0  read in
    real space projection operators read in
  non local Contribution for L=           0  read in
    real space projection operators read in
  non local Contribution for L=           1  read in
    real space projection operators read in
  non local Contribution for L=           1  read in
    real space projection operators read in
    PAW grid and wavefunctions read in

   number of l-projection  operators is LMAX  =           4
   number of lm-projection operators is LMMAX =           8

 Optimization of the real space projectors (new method)

 maximal supplied QI-value         = 19.84
 optimisation between [QCUT,QGAM] = [ 11.31, 22.82] = [ 35.82,145.81] Ry 
 Optimized for a Real-space Cutoff    1.16 Angstroem

   l    n(q)    QCUT    max X(q) W(low)/X(q) W(high)/X(q)  e(spline) 
   0      8    11.310   159.560    0.27E-03    0.30E-03    0.39E-07
   0      8    11.310   115.863    0.27E-03    0.30E-03    0.38E-07
   1      7    11.310    88.339    0.28E-03    0.28E-03    0.77E-07
   1      7    11.310    48.592    0.27E-03    0.27E-03    0.74E-07
 Optimization of the real space projectors (new method)

 maximal supplied QI-value         = 19.84
 optimisation between [QCUT,QGAM] = [ 11.31, 22.82] = [ 35.82,145.81] Ry 
 Optimized for a Real-space Cutoff    1.07 Angstroem

   l    n(q)    QCUT    max X(q) W(low)/X(q) W(high)/X(q)  e(spline) 
   0      7    11.310   176.870    0.43E-03    0.33E-03    0.78E-07
   0      7    11.310   105.762    0.41E-03    0.33E-03    0.76E-07
   1      7    11.310    55.370    0.40E-03    0.29E-03    0.65E-07
   1      7    11.310    20.208    0.38E-03    0.25E-03    0.60E-07
 Optimization of the real space projectors (new method)

 maximal supplied QI-value         = 25.13
 optimisation between [QCUT,QGAM] = [ 11.31, 22.87] = [ 35.82,146.48] Ry 
 Optimized for a Real-space Cutoff    1.27 Angstroem

   l    n(q)    QCUT    max X(q) W(low)/X(q) W(high)/X(q)  e(spline) 
   0      9    11.310    79.467    0.75E-04    0.16E-03    0.36E-06
   0      9    11.310    66.151    0.74E-04    0.16E-03    0.36E-06
   1      8    11.310    17.416    0.35E-03    0.12E-03    0.95E-06
   1      8    11.310    12.382    0.37E-03    0.13E-03    0.98E-06
  PAW_PBE Si 05Jan2001                  :
 energy of atom  1       EATOM= -103.0669
 kinetic energy error for atom=    0.0006 (will be added to EATOM!!)
  PAW_PBE Al 04Jan2001                  :
 energy of atom  2       EATOM=  -53.5387
 kinetic energy error for atom=    0.0003 (will be added to EATOM!!)
  PAW_PBE N 08Apr2002                   :
 energy of atom  3       EATOM= -264.5486
 kinetic energy error for atom=    0.0138 (will be added to EATOM!!)


 POSCAR: Al2 N2                                  
  positions in direct lattice
  velocities in cartesian coordinates
 exchange correlation table for  LEXCH =        8
   RHO(1)=    0.500       N(1)  =     2000
   RHO(2)=  100.500       N(2)  =     4000



--------------------------------------------------------------------------------------------------------


 ion  position               nearest neighbor table
   1  0.667  0.333  0.882-  71 1.78  63 1.78  65 1.78  35 2.37  27 2.37  29 2.37  15 2.40  17 2.40
                             9 2.40
   2  0.111  0.222  0.501-  68 1.87  56 1.87  58 1.89  39 1.89  33 3.02  21 3.02  32 3.02  20 3.02
                            23 3.03  14 3.05   8 3.05  22 3.07  18 3.09   6 3.09  10 3.10   4 3.10
   3  0.111  0.222  0.999-  69 1.87  57 1.87  59 1.88  38 1.88  15 2.95   9 2.95  22 3.05  23 3.06
                            33 3.06  21 3.06  32 3.08  20 3.08  19 3.09   7 3.09  11 3.10   5 3.10
   4  0.114  0.557  0.498-  60 1.87  58 1.87  70 1.88  41 1.91  35 2.88  34 3.00  24 3.05  22 3.05
                            25 3.05  23 3.05  10 3.05  12 3.05   2 3.10   6 3.10  14 3.12  16 3.12
   5  0.113  0.556  0.999-  61 1.88  59 1.88  40 1.88  71 1.99  24 3.05  22 3.05  25 3.06  23 3.06
                            11 3.08  13 3.08  34 3.09   3 3.10   7 3.10  15 3.12  17 3.12  35 3.32
   6  0.111  0.889  0.501-  72 1.87  56 1.87  60 1.89  43 1.89  37 3.02  21 3.02  36 3.02  20 3.02
                            25 3.03   8 3.05  16 3.05  24 3.07  18 3.09   2 3.09  12 3.10   4 3.10
   7  0.111  0.889  0.999-  73 1.87  57 1.87  61 1.88  42 1.88   9 2.95  17 2.95  24 3.05  25 3.06
                            37 3.06  21 3.06  36 3.08  20 3.08  19 3.09   3 3.09  13 3.10   5 3.10
   8  0.438  0.219  0.490-  56 1.85  45 1.86  64 1.88  62 1.88  29 2.90  27 2.90  20 2.95  28 2.96
                            26 2.96   6 3.05   2 3.05  21 3.09  12 3.12  10 3.12  16 3.18  14 3.18
   9  0.422  0.211  0.021-  44 1.81  57 1.81  65 1.96  63 1.96   1 2.40  20 2.84   7 2.95   3 2.95
                            28 2.99  26 2.99  13 3.12  11 3.12  21 3.16
  10  0.443  0.557  0.498-  58 1.87  66 1.87  64 1.88  47 1.91  29 2.88  28 3.00  22 3.05  30 3.05
                            23 3.05  31 3.05   4 3.05  12 3.05   2 3.10  18 3.10  16 3.12   8 3.12
  11  0.444  0.556  0.999-  59 1.88  67 1.88  46 1.88  65 1.99  22 3.05  30 3.05  23 3.06  31 3.06
                             5 3.08  13 3.08  28 3.09   3 3.10  19 3.10  17 3.12   9 3.12  29 3.32
  12  0.443  0.886  0.498-  60 1.87  66 1.87  62 1.88  49 1.91  27 2.88  26 3.00  24 3.05  30 3.05
                            25 3.05  31 3.05   4 3.05  10 3.05   6 3.10  18 3.10  14 3.12   8 3.12
  13  0.444  0.887  0.999-  61 1.88  67 1.88  48 1.88  63 1.99  24 3.05  30 3.05  25 3.06  31 3.06
                             5 3.08  11 3.08  26 3.09   7 3.10  19 3.10  15 3.12   9 3.12  27 3.32
  14  0.781  0.219  0.490-  68 1.85  51 1.86  62 1.88  70 1.88  27 2.90  35 2.90  32 2.95  26 2.96
                            34 2.96   2 3.05  18 3.05  33 3.09   4 3.12  12 3.12   8 3.18  16 3.18
  15  0.789  0.211  0.021-  50 1.81  69 1.81  63 1.96  71 1.96   1 2.40  32 2.84   3 2.95  19 2.95
                            26 2.99  34 2.99   5 3.12  13 3.12  33 3.16
  16  0.781  0.562  0.490-  72 1.85  53 1.86  64 1.88  70 1.88  29 2.90  35 2.90  36 2.95  28 2.96
                            34 2.96   6 3.05  18 3.05  37 3.09   4 3.12  10 3.12   8 3.18  14 3.18
  17  0.789  0.578  0.021-  52 1.81  73 1.81  65 1.96  71 1.96   1 2.40  36 2.84   7 2.95  19 2.95
                            28 2.99  34 2.99   5 3.12  11 3.12  37 3.16
  18  0.778  0.889  0.501-  68 1.87  72 1.87  66 1.89  55 1.89  33 3.02  37 3.02  32 3.02  36 3.02
                            31 3.03  14 3.05  16 3.05  30 3.07   2 3.09   6 3.09  12 3.10  10 3.10
  19  0.778  0.889  0.999-  69 1.87  73 1.87  67 1.88  54 1.88  15 2.95  17 2.95  30 3.05  31 3.06
                            33 3.06  37 3.06  32 3.08  36 3.08   3 3.09   7 3.09  13 3.10  11 3.10
  20  0.215  0.108  0.253-  56 1.84  42 1.88  38 1.88  44 1.89   9 2.84   8 2.95  36 3.00  32 3.00
                             6 3.02   2 3.02   7 3.08   3 3.08  24 3.09  22 3.09  26 3.14  28 3.14
  21  0.220  0.110  0.747-  45 1.84  43 1.86  39 1.86  57 1.91   6 3.02   2 3.02   7 3.06   3 3.06
                            37 3.07  33 3.07  25 3.09  23 3.09   8 3.09  27 3.12  29 3.12   9 3.16
  22  0.222  0.444  0.249-  38 1.88  58 1.89  46 1.89  40 1.89  10 3.05   4 3.05  11 3.05   5 3.05
                             3 3.05   2 3.07  34 3.07  28 3.07  32 3.09  20 3.09  30 3.10  24 3.10
  23  0.222  0.443  0.748-  39 1.86  47 1.88  41 1.88  59 1.90   2 3.03  10 3.05   4 3.05   3 3.06
                            11 3.06   5 3.06  33 3.09  21 3.09  31 3.11  25 3.11  35 3.14  29 3.14
  24  0.222  0.778  0.249-  42 1.88  60 1.89  48 1.89  40 1.89  12 3.05   4 3.05  13 3.05   5 3.05
                             7 3.05   6 3.07  26 3.07  34 3.07  36 3.09  20 3.09  30 3.10  22 3.10
  25  0.222  0.778  0.748-  43 1.86  49 1.88  41 1.88  61 1.90   6 3.03  12 3.05   4 3.05   7 3.06
                            13 3.06   5 3.06  37 3.09  21 3.09  31 3.11  23 3.11  27 3.14  35 3.14
  26  0.554  0.108  0.255-  62 1.87  48 1.87  50 1.89  44 1.89  14 2.96   8 2.96  15 2.99   9 2.99
                            12 3.00  24 3.07  30 3.07  13 3.09  20 3.14  32 3.14  34 3.14  28 3.14
  27  0.558  0.116  0.720-  49 1.85  51 1.87  45 1.87  63 2.29   1 2.37  12 2.88  14 2.90   8 2.90
                            35 3.02  29 3.02  21 3.12  33 3.12  25 3.14  31 3.14  13 3.32
  28  0.554  0.446  0.255-  64 1.87  46 1.87  52 1.89  44 1.89  16 2.96   8 2.96  17 2.99   9 2.99
                            10 3.00  22 3.07  30 3.07  11 3.09  20 3.14  36 3.14  34 3.14  26 3.14
  29  0.558  0.442  0.720-  47 1.85  53 1.87  45 1.87  65 2.29   1 2.37  10 2.88  16 2.90   8 2.90
                            35 3.02  27 3.02  21 3.12  37 3.12  23 3.14  31 3.14  11 3.32
  30  0.556  0.778  0.249-  54 1.88  66 1.89  46 1.89  48 1.89  10 3.05  12 3.05  11 3.05  13 3.05
                            19 3.05  18 3.07  26 3.07  28 3.07  32 3.09  36 3.09  24 3.10  22 3.10
  31  0.557  0.778  0.748-  55 1.86  47 1.88  49 1.88  67 1.90  18 3.03  10 3.05  12 3.05  19 3.06
                            11 3.06  13 3.06  33 3.09  37 3.09  25 3.11  23 3.11  27 3.14  29 3.14
  32  0.892  0.108  0.253-  68 1.84  38 1.88  54 1.88  50 1.89  15 2.84  14 2.95  20 3.00  36 3.00
                             2 3.02  18 3.02   3 3.08  19 3.08  22 3.09  30 3.09  26 3.14  34 3.14
  33  0.890  0.110  0.747-  51 1.84  39 1.86  55 1.86  69 1.91   2 3.02  18 3.02   3 3.06  19 3.06
                            21 3.07  37 3.07  23 3.09  31 3.09  14 3.09  27 3.12  35 3.12  15 3.16
  34  0.892  0.446  0.255-  70 1.87  40 1.87  50 1.89  52 1.89  14 2.96  16 2.96  15 2.99  17 2.99
                             4 3.00  22 3.07  24 3.07   5 3.09  32 3.14  36 3.14  26 3.14  28 3.14
  35  0.884  0.442  0.720-  41 1.85  51 1.87  53 1.87  71 2.29   1 2.37   4 2.88  14 2.90  16 2.90
                            27 3.02  29 3.02  33 3.12  37 3.12  23 3.14  25 3.14   5 3.32
  36  0.892  0.785  0.253-  72 1.84  42 1.88  54 1.88  52 1.89  17 2.84  16 2.95  20 3.00  32 3.00
                             6 3.02  18 3.02   7 3.08  19 3.08  24 3.09  30 3.09  28 3.14  34 3.14
  37  0.890  0.780  0.747-  53 1.84  43 1.86  55 1.86  73 1.91   6 3.02  18 3.02   7 3.06  19 3.06
                            21 3.07  33 3.07  25 3.09  31 3.09  16 3.09  29 3.12  35 3.12  17 3.16
  38  0.111  0.222  0.188-  32 1.88  20 1.88   3 1.88  22 1.88
  39  0.111  0.222  0.691-  33 1.86  21 1.86  23 1.86   2 1.89
  40  0.110  0.555  0.188-  34 1.87   5 1.88  24 1.89  22 1.89
  41  0.111  0.556  0.690-  35 1.85  25 1.88  23 1.88   4 1.91
  42  0.111  0.889  0.188-  36 1.88  20 1.88   7 1.88  24 1.88
  43  0.111  0.889  0.691-  37 1.86  21 1.86  25 1.86   6 1.89
  44  0.441  0.221  0.202-   9 1.81  28 1.89  26 1.89  20 1.89
  45  0.432  0.216  0.677-  21 1.84   8 1.86  29 1.87  27 1.87
  46  0.445  0.555  0.188-  28 1.87  11 1.88  22 1.89  30 1.89
  47  0.444  0.556  0.690-  29 1.85  23 1.88  31 1.88  10 1.91
  48  0.445  0.890  0.188-  26 1.87  13 1.88  24 1.89  30 1.89
  49  0.444  0.889  0.690-  27 1.85  25 1.88  31 1.88  12 1.91
  50  0.779  0.221  0.202-  15 1.81  26 1.89  34 1.89  32 1.89
  51  0.784  0.216  0.677-  33 1.84  14 1.86  27 1.87  35 1.87
  52  0.779  0.559  0.202-  17 1.81  28 1.89  34 1.89  36 1.89
  53  0.784  0.568  0.677-  37 1.84  16 1.86  29 1.87  35 1.87
  54  0.778  0.889  0.188-  32 1.88  36 1.88  19 1.88  30 1.88
  55  0.778  0.889  0.691-  33 1.86  37 1.86  31 1.86  18 1.89
  56  0.217  0.108  0.439-  20 1.84   8 1.85   6 1.87   2 1.87
  57  0.220  0.110  0.940-   9 1.81   7 1.87   3 1.87  21 1.91
  58  0.222  0.444  0.439-  10 1.87   4 1.87   2 1.89  22 1.89
  59  0.222  0.444  0.940-  11 1.88   5 1.88   3 1.88  23 1.90
  60  0.222  0.778  0.439-  12 1.87   4 1.87   6 1.89  24 1.89
  61  0.222  0.778  0.940-  13 1.88   5 1.88   7 1.88  25 1.90
  62  0.555  0.109  0.443-  26 1.87  12 1.88  14 1.88   8 1.88
  63  0.564  0.128  0.951-   1 1.78  15 1.96   9 1.96  13 1.99  27 2.29
  64  0.555  0.445  0.443-  28 1.87  10 1.88  16 1.88   8 1.88
  65  0.564  0.436  0.951-   1 1.78  17 1.96   9 1.96  11 1.99  29 2.29
  66  0.556  0.778  0.439-  10 1.87  12 1.87  18 1.89  30 1.89
  67  0.556  0.778  0.940-  11 1.88  13 1.88  19 1.88  31 1.90
  68  0.892  0.108  0.439-  32 1.84  14 1.85   2 1.87  18 1.87
  69  0.890  0.110  0.940-  15 1.81   3 1.87  19 1.87  33 1.91
  70  0.891  0.445  0.443-  34 1.87   4 1.88  14 1.88  16 1.88
  71  0.872  0.436  0.951-   1 1.78  15 1.96  17 1.96   5 1.99  35 2.29
  72  0.892  0.783  0.439-  36 1.84  16 1.85   6 1.87  18 1.87
  73  0.890  0.780  0.940-  17 1.81   7 1.87  19 1.87  37 1.91

  LATTYP: Found a hexagonal cell.
 ALAT       =     9.2872017641
 C/A-ratio  =     1.0669595981
  
  Lattice vectors:
  
 A1 = (   9.2872018814,   0.0000000000,   0.0000000000)
 A2 = (  -4.6436029654,   8.0429537929,   0.0000000000)
 A3 = (   0.0000000000,   0.0000000000,   9.9090690613)


Analysis of symmetry for initial positions (statically):
=====================================================================
 Subroutine PRICEL returns:
 Original cell was already a primitive cell.
 

 Routine SETGRP: Setting up the symmetry group for a 
 hexagonal supercell.


 Subroutine GETGRP returns: Found  6 space group operations
 (whereof  6 operations were pure point group operations)
 out of a pool of 24 trial point group operations.


The static configuration has the point symmetry C_3v.


Analysis of symmetry for dynamics (positions and initial velocities):
=====================================================================
 Subroutine PRICEL returns:
 Original cell was already a primitive cell.
 

 Routine SETGRP: Setting up the symmetry group for a 
 hexagonal supercell.


 Subroutine GETGRP returns: Found  6 space group operations
 (whereof  6 operations were pure point group operations)
 out of a pool of 24 trial point group operations.


The dynamic configuration has the point symmetry C_3v.


 Subroutine INISYM returns: Found  6 space group operations
 (whereof  6 operations are pure point group operations),
 and found     1 'primitive' translations



 KPOINTS: 0.030  15  15   7  108  0.040  201    9 
  k-points in reciprocal lattice
Space group operators:
 irot       det(A)        alpha          n_x          n_y          n_z        tau_x        tau_y        tau_z
    1     1.000000     0.000000     1.000000     0.000000     0.000000     0.000000     0.000000     0.000000
    2     1.000000   120.000000     0.000000     0.000000    -1.000000     0.000000     0.000000     0.000000
    3     1.000000   120.000000     0.000000     0.000000     1.000000     0.000000     0.000000     0.000000
    4    -1.000000   179.999999     1.000000     0.000000     0.000000     0.000000     0.000000     0.000000
    5    -1.000000   180.000000     0.500000    -0.866025     0.000000     0.000000     0.000000     0.000000
    6    -1.000000   180.000000    -0.500000    -0.866025     0.000000     0.000000     0.000000     0.000000

 ----------------------------------------------------------------------------- 
|                                                                             |
|           W    W    AA    RRRRR   N    N  II  N    N   GGGG   !!!           |
|           W    W   A  A   R    R  NN   N  II  NN   N  G    G  !!!           |
|           W    W  A    A  R    R  N N  N  II  N N  N  G       !!!           |
|           W WW W  AAAAAA  RRRRR   N  N N  II  N  N N  G  GGG   !            |
|           WW  WW  A    A  R   R   N   NN  II  N   NN  G    G                |
|           W    W  A    A  R    R  N    N  II  N    N   GGGG   !!!           |
|                                                                             |
|      Your generating k-point grid is not commensurate to the symmetry       |
|      of the lattice.  This can cause   slow convergence with respect        |
|      to k-points for HF type calculations                                   |
|      suggested SOLUTIONS:                                                   |
|       ) if not already the case, use automatic k-point generation           |
|       ) shift your grid to Gamma (G) (e.g. required for hex or fcc lattice) |
|                                                                             |
 ----------------------------------------------------------------------------- 

 
 Subroutine IBZKPT_HF returns following result:
 ==============================================
 
 Found     86 k-points in 1st BZ
 the following     86 k-points will be used (e.g. in the exchange kernel)
 Following reciprocal coordinates:   # in IRBZ
  0.000000  0.000000  0.000000    0.12500000   1 t-inv F
  0.500000  0.000000  0.000000    0.12500000   2 t-inv F
  0.000000  0.000000  0.500000    0.12500000   3 t-inv F
  0.500000  0.000000  0.500000    0.12500000   4 t-inv F
  0.000000  0.000000  0.000000    0.00000000   5 t-inv F
  0.017857  0.000000  0.000000    0.00000000   6 t-inv F
  0.035714  0.000000  0.000000    0.00000000   7 t-inv F
  0.053571  0.000000  0.000000    0.00000000   8 t-inv F
  0.071429  0.000000  0.000000    0.00000000   9 t-inv F
  0.089286  0.000000  0.000000    0.00000000  10 t-inv F
  0.107143  0.000000  0.000000    0.00000000  11 t-inv F
  0.125000  0.000000  0.000000    0.00000000  12 t-inv F
  0.142857  0.000000  0.000000    0.00000000  13 t-inv F
  0.160714  0.000000  0.000000    0.00000000  14 t-inv F
  0.178571  0.000000  0.000000    0.00000000  15 t-inv F
  0.196429  0.000000  0.000000    0.00000000  16 t-inv F
  0.214286  0.000000  0.000000    0.00000000  17 t-inv F
  0.232143  0.000000  0.000000    0.00000000  18 t-inv F
  0.250000  0.000000  0.000000    0.00000000  19 t-inv F
  0.267857  0.000000  0.000000    0.00000000  20 t-inv F
  0.285714  0.000000  0.000000    0.00000000  21 t-inv F
  0.303571  0.000000  0.000000    0.00000000  22 t-inv F
  0.321429  0.000000  0.000000    0.00000000  23 t-inv F
  0.339286  0.000000  0.000000    0.00000000  24 t-inv F
  0.357143  0.000000  0.000000    0.00000000  25 t-inv F
  0.375000  0.000000  0.000000    0.00000000  26 t-inv F
  0.392857  0.000000  0.000000    0.00000000  27 t-inv F
  0.410714  0.000000  0.000000    0.00000000  28 t-inv F
  0.428571  0.000000  0.000000    0.00000000  29 t-inv F
  0.446429  0.000000  0.000000    0.00000000  30 t-inv F
  0.464286  0.000000  0.000000    0.00000000  31 t-inv F
  0.482143  0.000000  0.000000    0.00000000  32 t-inv F
  0.500000  0.000000  0.000000    0.00000000  33 t-inv F
  0.500000  0.000000  0.000000    0.00000000  34 t-inv F
  0.488889  0.022222  0.000000    0.00000000  35 t-inv F
  0.477778  0.044444  0.000000    0.00000000  36 t-inv F
  0.466667  0.066667  0.000000    0.00000000  37 t-inv F
  0.455556  0.088889  0.000000    0.00000000  38 t-inv F
  0.444444  0.111111  0.000000    0.00000000  39 t-inv F
  0.433333  0.133333  0.000000    0.00000000  40 t-inv F
  0.422222  0.155556  0.000000    0.00000000  41 t-inv F
  0.411111  0.177778  0.000000    0.00000000  42 t-inv F
  0.400000  0.200000  0.000000    0.00000000  43 t-inv F
  0.388889  0.222222  0.000000    0.00000000  44 t-inv F
  0.377778  0.244444  0.000000    0.00000000  45 t-inv F
  0.366667  0.266667  0.000000    0.00000000  46 t-inv F
  0.355556  0.288889  0.000000    0.00000000  47 t-inv F
  0.344444  0.311111  0.000000    0.00000000  48 t-inv F
  0.333333  0.333333  0.000000    0.00000000  49 t-inv F
  0.333333  0.333333  0.000000    0.00000000  50 t-inv F
  0.322917  0.322917  0.000000    0.00000000  51 t-inv F
  0.312500  0.312500  0.000000    0.00000000  52 t-inv F
  0.302083  0.302083  0.000000    0.00000000  53 t-inv F
  0.291667  0.291667  0.000000    0.00000000  54 t-inv F
  0.281250  0.281250  0.000000    0.00000000  55 t-inv F
  0.270833  0.270833  0.000000    0.00000000  56 t-inv F
  0.260417  0.260417  0.000000    0.00000000  57 t-inv F
  0.250000  0.250000  0.000000    0.00000000  58 t-inv F
  0.239583  0.239583  0.000000    0.00000000  59 t-inv F
  0.229167  0.229167  0.000000    0.00000000  60 t-inv F
  0.218750  0.218750  0.000000    0.00000000  61 t-inv F
  0.208333  0.208333  0.000000    0.00000000  62 t-inv F
  0.197917  0.197917  0.000000    0.00000000  63 t-inv F
  0.187500  0.187500  0.000000    0.00000000  64 t-inv F
  0.177083  0.177083  0.000000    0.00000000  65 t-inv F
  0.166667  0.166667  0.000000    0.00000000  66 t-inv F
  0.156250  0.156250  0.000000    0.00000000  67 t-inv F
  0.145833  0.145833  0.000000    0.00000000  68 t-inv F
  0.135417  0.135417  0.000000    0.00000000  69 t-inv F
  0.125000  0.125000  0.000000    0.00000000  70 t-inv F
  0.114583  0.114583  0.000000    0.00000000  71 t-inv F
  0.104167  0.104167  0.000000    0.00000000  72 t-inv F
  0.093750  0.093750  0.000000    0.00000000  73 t-inv F
  0.083333  0.083333  0.000000    0.00000000  74 t-inv F
  0.072917  0.072917  0.000000    0.00000000  75 t-inv F
  0.062500  0.062500  0.000000    0.00000000  76 t-inv F
  0.052083  0.052083  0.000000    0.00000000  77 t-inv F
  0.041667  0.041667  0.000000    0.00000000  78 t-inv F
  0.031250  0.031250  0.000000    0.00000000  79 t-inv F
  0.020833  0.020833  0.000000    0.00000000  80 t-inv F
  0.010417  0.010417  0.000000    0.00000000  81 t-inv F
  0.000000  0.000000  0.000000    0.00000000  82 t-inv F
 -0.500000  0.500000  0.000000    0.12500000   2 t-inv F
  0.000000 -0.500000  0.000000    0.12500000   2 t-inv F
 -0.500000  0.500000  0.500000    0.12500000   4 t-inv F
  0.000000 -0.500000  0.500000    0.12500000   4 t-inv F


--------------------------------------------------------------------------------------------------------




 Dimension of arrays:
   k-points           NKPTS =     82   k-points in BZ     NKDIM =     86   number of bands    NBANDS=    192
   number of dos      NEDOS =    301   number of ions     NIONS =     73
   non local maximal  LDIM  =      4   non local SUM 2l+1 LMDIM =      8
   total plane-waves  NPLWV = 157464
   max r-space proj   IRMAX =   1883   max aug-charges    IRDMAX=   8478
   dimension x,y,z NGX =    54 NGY =   54 NGZ =   54
   dimension x,y,z NGXF=   108 NGYF=  108 NGZF=  108
   support grid    NGXF=   108 NGYF=  108 NGZF=  108
   ions per type =               1  36  36
 NGX,Y,Z   is equivalent  to a cutoff of   9.67,  9.67,  9.06 a.u.
 NGXF,Y,Z  is equivalent  to a cutoff of  19.33, 19.33, 18.12 a.u.


 I would recommend the setting:
   dimension x,y,z NGX =    51 NGY =   51 NGZ =   54
 SYSTEM =  unknown system                          
 POSCAR =  Al2 N2                                  

 Startparameter for this run:
   NWRITE =      2    write-flag & timer
   PREC   = normal    normal or accurate (medium, high low for compatibility)
   ISTART =      1    job   : 0-new  1-cont  2-samecut
   ICHARG =      0    charge: 1-file 2-atom 10-const
   ISPIN  =      1    spin polarized calculation?
   LNONCOLLINEAR =      F non collinear calculations
   LSORBIT =      F    spin-orbit coupling
   INIWAV =      1    electr: 0-lowe 1-rand  2-diag
   LASPH  =      F    aspherical Exc in radial PAW
   METAGGA=      F    non-selfconsistent MetaGGA calc.

 Electronic Relaxation 1
   ENCUT  =  500.0 eV  36.75 Ry    6.06 a.u.  16.93 16.93 18.07*2*pi/ulx,y,z
   ENINI  =  500.0     initial cutoff
   ENAUG  =  627.1 eV  augmentation charge cutoff
   NELM   =    300;   NELMIN=  8; NELMDL=  0     # of ELM steps 
   EDIFF  = 0.1E-04   stopping-criterion for ELM
   LREAL  =      T    real-space projection
   NLSPLINE    = F    spline interpolate recip. space projectors
   LCOMPAT=      F    compatible to vasp.4.4
   GGA_COMPAT  = T    GGA compatible to vasp.4.4-vasp.4.6
   LMAXPAW     = -100 max onsite density
   LMAXMIX     =    2 max onsite mixed and CHGCAR
   VOSKOWN=      0    Vosko Wilk Nusair interpolation
   ROPT   =   -0.00050  -0.00050  -0.00050
 Ionic relaxation
   EDIFFG = -.2E-01   stopping-criterion for IOM
   NSW    =      0    number of steps for IOM
   NBLOCK =      1;   KBLOCK =      1    inner block; outer block 
   IBRION =     -1    ionic relax: 0-MD 1-quasi-New 2-CG
   NFREE  =      0    steps in history (QN), initial steepest desc. (CG)
   ISIF   =      2    stress and relaxation
   IWAVPR =     10    prediction:  0-non 1-charg 2-wave 3-comb
   ISYM   =      3    0-nonsym 1-usesym 2-fastsym
   LCORR  =      T    Harris-Foulkes like correction to forces

   POTIM  = 0.5000    time-step for ionic-motion
   TEIN   =    0.0    initial temperature
   TEBEG  =    0.0;   TEEND  =   0.0 temperature during run
   SMASS  =  -3.00    Nose mass-parameter (am)
   estimated Nose-frequenzy (Omega)   =  0.10E-29 period in steps =****** mass=  -0.197E-26a.u.
   SCALEE = 1.0000    scale energy and forces
   NPACO  =    256;   APACO  = 16.0  distance and # of slots for P.C.
   PSTRESS=    0.0 pullay stress

  Mass of Ions in am
   POMASS =  28.09 26.98 14.00
  Ionic Valenz
   ZVAL   =   4.00  3.00  5.00
  Atomic Wigner-Seitz radii
   RWIGS  =  -1.00 -1.00 -1.00
  virtual crystal weights 
   VCA    =   1.00  1.00  1.00
   NELECT =     290.0000    total number of electrons
   NUPDOWN=      -1.0000    fix difference up-down

 DOS related values:
   EMIN   =  10.00;   EMAX   =-10.00  energy-range for DOS
   EFERMI =   0.00
   ISMEAR =     0;   SIGMA  =   0.01  broadening in eV -4-tet -1-fermi 0-gaus

 Electronic relaxation 2 (details)
   IALGO  =     38    algorithm
   LDIAG  =      T    sub-space diagonalisation (order eigenvalues)
   LSUBROT=      F    optimize rotation matrix (better conditioning)
   TURBO    =      0    0=normal 1=particle mesh
   IRESTART =      0    0=no restart 2=restart with 2 vectors
   NREBOOT  =      0    no. of reboots
   NMIN     =      0    reboot dimension
   EREF     =   0.00    reference energy to select bands
   IMIX   =      1    mixing-type and parameters
     AMIX     =   0.40;   BMIX     =  1.00
     AMIX_MAG =   1.60;   BMIX_MAG =  1.00
     AMIN     =   0.10
     WC   =   100.;   INIMIX=   1;  MIXPRE=   1;  MAXMIX= -45

 Intra band minimization:
   WEIMIN = 0.0000     energy-eigenvalue tresh-hold
   EBREAK =  0.13E-07  absolut break condition
   DEPER  =   0.30     relativ break condition  

   TIME   =   0.40     timestep for ELM

  volume/ion in A,a.u.               =      10.14        68.42
  Fermi-wavevector in a.u.,A,eV,Ry     =   1.197925  2.263751 19.524700  1.435025
  Thomas-Fermi vector in A             =   2.333828

 Write flags
   LWAVE  =      F    write WAVECAR
   LCHARG =      F    write CHGCAR
   LVTOT  =      F    write LOCPOT, total local potential
   LVHAR  =      F    write LOCPOT, Hartree potential only
   LELF   =      F    write electronic localiz. function (ELF)
   LORBIT =     11    0 simple, 1 ext, 2 COOP (PROOUT)


 Dipole corrections
   LMONO  =      F    monopole corrections only (constant potential shift)
   LDIPOL =      F    correct potential (dipole corrections)
   IDIPOL =      0    1-x, 2-y, 3-z, 4-all directions 
   EPSILON=  1.0000000 bulk dielectric constant

 Exchange correlation treatment:
   GGA     =    --    GGA type
   LEXCH   =     8    internal setting for exchange type
   VOSKOWN=      0    Vosko Wilk Nusair interpolation
   EXXOEP  =     0    0=HF, 1=EXX-LHF (local Hartree Fock) 2=EXX OEP
   LHFCALC =     T    Hartree Fock is set to
   LSYMGRAD=     F    symmetrize gradient (conserves proper symmetry)
   PRECFOCK=fast      Normal, Fast or Accurate (Low or Medium for compatibility)
   LRHFCALC=     F    long range Hartree Fock
   LRSCOR  =     F    long range correlation only (use DFT for short range part)
   LTHOMAS =     F    Thomas Fermi screening in HF
   LMODELHF=     F    short range full HF, long range fraction AEXX
   ENCUT4O =  -1.0   cutoff for four orbital integrals eV
   LMAXFOCK=     4    L truncation for augmentation on plane wave grid
   LMAXFOCKAE=  -1    L truncation for all-electron charge restoration on plane wave grid
   NMAXFOCKAE=   1    number of basis functions for all-electron charge restoration
   LFOCKAEDFT=     F  apply the AE augmentation even for DFT
   NKREDX  =     1    reduce k-point grid by
   NKREDY  =     1    reduce k-point grid by
   NKREDZ  =     1    reduce k-point grid by
   SHIFTRED=     F    shift reduced grid of Gamma
   HFKIDENT=     F    idential grid for each k-point
   ODDONLY =     F    use only odd q-grid points
   EVENONLY=     F    use only even q-grid points
   HFALPHA =   -1.0000 decay constant for conv. correction
   MCALPHA =    0.0000 extent of test-charge in conv. correction in multipole expansion
   AEXX    =    0.3300 exact exchange contribution
   HFSCREEN=    0.2000 screening length (either q_TF or 0.3 A-1)
   HFSCREENC=   0.2000 screening length for correlation (either q_TF or 0.3 A-1)
   HFRCUT  =    0.0000 spherical cutoff for potential kernel
   ALDAX   =    0.6700 LDA exchange part
   AGGAX   =    0.6700 GGA exchange part
   ALDAC   =    1.0000 LDA correlation
   AGGAC   =    1.0000 GGA correlation
   NBANDSGWLOW=     1    first orbital included in HF term
   ENCUTFOCK=  -1.0 apply spherical cutoff to Coloumb kernel
 Linear response parameters
   LEPSILON=     F    determine dielectric tensor
   LRPA    =     F    only Hartree local field effects (RPA)
   LNABLA  =     F    use nabla operator in PAW spheres
   LVEL    =     F    velocity operator in full k-point grid
   LINTERFAST=   F  fast interpolation
   KINTER  =     0    interpolate to denser k-point grid
   CSHIFT  =0.1000    complex shift for real part using Kramers Kronig
   OMEGAMAX=  -1.0    maximum frequency
   DEG_THRESHOLD= 0.2000000E-02 threshold for treating states as degnerate
   RTIME   =    0.100 relaxation time in fs

 Orbital magnetization related:
   ORBITALMAG=     F  switch on orbital magnetization
   LCHIMAG   =     F  perturbation theory with respect to B field
   DQ        =  0.001000  dq finite difference perturbation B field



--------------------------------------------------------------------------------------------------------


 Static calculation
 charge density and potential will be updated during run
 non-spin polarized calculation
 Variant of blocked Davidson
 Davidson routine will perform the subspace rotation
 perform sub-space diagonalisation
    after iterative eigenvector-optimisation
 Kerker-like  mixing scheme
 using additional bands           47
 real space projection scheme for non local part
 use partial core corrections
 calculate Harris-corrections to forces   (improved forces if not selfconsistent)
 use gradient corrections 
 use of overlap-Matrix (Vanderbilt PP)
 Gauss-broadening in eV      SIGMA  =   0.01


--------------------------------------------------------------------------------------------------------


  energy-cutoff  :      500.00
  volume of cell :      740.17
      direct lattice vectors                 reciprocal lattice vectors
     9.287201881  0.000000000  0.000000000     0.107675058  0.062166243 -0.000000000
    -4.643602965  8.042953793  0.000000000     0.000000000  0.124332431  0.000000000
     0.000000000  0.000000000  9.909069061     0.000000000 -0.000000000  0.100917654

  length of vectors
     9.287201881  9.287203789  9.909069061     0.124332457  0.124332431  0.100917654



 old parameters found on file WAVECAR:
  energy-cutoff  :      500.00
  volume of cell :      740.17
      direct lattice vectors                 reciprocal lattice vectors
     9.287201881  0.000000000  0.000000000     0.107675058  0.062166243 -0.000000000
    -4.643602965  8.042953793  0.000000000     0.000000000  0.124332431  0.000000000
     0.000000000  0.000000000  9.909069061     0.000000000 -0.000000000  0.100917654

  length of vectors


 k-points in units of 2pi/SCALE and weight: 0.030  15  15   7  108  0.040  201    9 
   0.00000000  0.00000000  0.00000000       0.125
   0.05383753  0.03108312  0.00000000       0.375
   0.00000000  0.00000000  0.05045883       0.125
   0.05383753  0.03108312  0.05045883       0.375
   0.00000000  0.00000000  0.00000000       0.000
   0.00192277  0.00111011  0.00000000       0.000
   0.00384554  0.00222022  0.00000000       0.000
   0.00576831  0.00333033  0.00000000       0.000
   0.00769108  0.00444045  0.00000000       0.000
   0.00961384  0.00555056  0.00000000       0.000
   0.01153661  0.00666067  0.00000000       0.000
   0.01345938  0.00777078  0.00000000       0.000
   0.01538215  0.00888089  0.00000000       0.000
   0.01730492  0.00999100  0.00000000       0.000
   0.01922769  0.01110111  0.00000000       0.000
   0.02115046  0.01221123  0.00000000       0.000
   0.02307323  0.01332134  0.00000000       0.000
   0.02499600  0.01443145  0.00000000       0.000
   0.02691876  0.01554156  0.00000000       0.000
   0.02884153  0.01665167  0.00000000       0.000
   0.03076430  0.01776178  0.00000000       0.000
   0.03268707  0.01887190  0.00000000       0.000
   0.03460984  0.01998201  0.00000000       0.000
   0.03653261  0.02109212  0.00000000       0.000
   0.03845538  0.02220223  0.00000000       0.000
   0.04037815  0.02331234  0.00000000       0.000
   0.04230092  0.02442245  0.00000000       0.000
   0.04422368  0.02553256  0.00000000       0.000
   0.04614645  0.02664268  0.00000000       0.000
   0.04806922  0.02775279  0.00000000       0.000
   0.04999199  0.02886290  0.00000000       0.000
   0.05191476  0.02997301  0.00000000       0.000
   0.05383753  0.03108312  0.00000000       0.000
   0.05383753  0.03108312  0.00000000       0.000
   0.05264114  0.03315533  0.00000000       0.000
   0.05144475  0.03522754  0.00000000       0.000
   0.05024836  0.03729974  0.00000000       0.000
   0.04905197  0.03937195  0.00000000       0.000
   0.04785558  0.04144416  0.00000000       0.000
   0.04665919  0.04351636  0.00000000       0.000
   0.04546280  0.04558857  0.00000000       0.000
   0.04426641  0.04766078  0.00000000       0.000
   0.04307002  0.04973298  0.00000000       0.000
   0.04187363  0.05180519  0.00000000       0.000
   0.04067724  0.05387740  0.00000000       0.000
   0.03948085  0.05594960  0.00000000       0.000
   0.03828447  0.05802181  0.00000000       0.000
   0.03708808  0.06009402  0.00000000       0.000
   0.03589169  0.06216622  0.00000000       0.000
   0.03589169  0.06216622  0.00000000       0.000
   0.03477007  0.06022353  0.00000000       0.000
   0.03364846  0.05828084  0.00000000       0.000
   0.03252684  0.05633814  0.00000000       0.000
   0.03140523  0.05439545  0.00000000       0.000
   0.03028361  0.05245275  0.00000000       0.000
   0.02916199  0.05051006  0.00000000       0.000
   0.02804038  0.04856736  0.00000000       0.000
   0.02691876  0.04662467  0.00000000       0.000
   0.02579715  0.04468197  0.00000000       0.000
   0.02467553  0.04273928  0.00000000       0.000
   0.02355392  0.04079658  0.00000000       0.000
   0.02243230  0.03885389  0.00000000       0.000
   0.02131069  0.03691120  0.00000000       0.000
   0.02018907  0.03496850  0.00000000       0.000
   0.01906746  0.03302581  0.00000000       0.000
   0.01794584  0.03108311  0.00000000       0.000
   0.01682423  0.02914042  0.00000000       0.000
   0.01570261  0.02719772  0.00000000       0.000
   0.01458100  0.02525503  0.00000000       0.000
   0.01345938  0.02331233  0.00000000       0.000
   0.01233777  0.02136964  0.00000000       0.000
   0.01121615  0.01942695  0.00000000       0.000
   0.01009454  0.01748425  0.00000000       0.000
   0.00897292  0.01554156  0.00000000       0.000
   0.00785131  0.01359886  0.00000000       0.000
   0.00672969  0.01165617  0.00000000       0.000
   0.00560808  0.00971347  0.00000000       0.000
   0.00448646  0.00777078  0.00000000       0.000
   0.00336485  0.00582808  0.00000000       0.000
   0.00224323  0.00388539  0.00000000       0.000
   0.00112162  0.00194269  0.00000000       0.000
   0.00000000  0.00000000  0.00000000       0.000

 k-points in reciprocal lattice and weights: 0.030  15  15   7  108  0.040  201    9 
   0.00000000  0.00000000  0.00000000       0.125
   0.50000000  0.00000000  0.00000000       0.375
   0.00000000  0.00000000  0.50000000       0.125
   0.50000000  0.00000000  0.50000000       0.375
   0.00000000  0.00000000  0.00000000       0.000
   0.01785714  0.00000000  0.00000000       0.000
   0.03571429  0.00000000  0.00000000       0.000
   0.05357143  0.00000000  0.00000000       0.000
   0.07142857  0.00000000  0.00000000       0.000
   0.08928571  0.00000000  0.00000000       0.000
   0.10714286  0.00000000  0.00000000       0.000
   0.12500000  0.00000000  0.00000000       0.000
   0.14285714  0.00000000  0.00000000       0.000
   0.16071429  0.00000000  0.00000000       0.000
   0.17857143  0.00000000  0.00000000       0.000
   0.19642857  0.00000000  0.00000000       0.000
   0.21428571  0.00000000  0.00000000       0.000
   0.23214286  0.00000000  0.00000000       0.000
   0.25000000  0.00000000  0.00000000       0.000
   0.26785714  0.00000000  0.00000000       0.000
   0.28571429  0.00000000  0.00000000       0.000
   0.30357143  0.00000000  0.00000000       0.000
   0.32142857  0.00000000  0.00000000       0.000
   0.33928571  0.00000000  0.00000000       0.000
   0.35714286  0.00000000  0.00000000       0.000
   0.37500000  0.00000000  0.00000000       0.000
   0.39285714  0.00000000  0.00000000       0.000
   0.41071429  0.00000000  0.00000000       0.000
   0.42857143  0.00000000  0.00000000       0.000
   0.44642857  0.00000000  0.00000000       0.000
   0.46428571  0.00000000  0.00000000       0.000
   0.48214286  0.00000000  0.00000000       0.000
   0.50000000  0.00000000  0.00000000       0.000
   0.50000000  0.00000000  0.00000000       0.000
   0.48888889  0.02222222  0.00000000       0.000
   0.47777778  0.04444444  0.00000000       0.000
   0.46666667  0.06666667  0.00000000       0.000
   0.45555556  0.08888889  0.00000000       0.000
   0.44444444  0.11111111  0.00000000       0.000
   0.43333333  0.13333333  0.00000000       0.000
   0.42222222  0.15555556  0.00000000       0.000
   0.41111111  0.17777778  0.00000000       0.000
   0.40000000  0.20000000  0.00000000       0.000
   0.38888889  0.22222222  0.00000000       0.000
   0.37777778  0.24444444  0.00000000       0.000
   0.36666667  0.26666667  0.00000000       0.000
   0.35555556  0.28888889  0.00000000       0.000
   0.34444444  0.31111111  0.00000000       0.000
   0.33333333  0.33333333  0.00000000       0.000
   0.33333333  0.33333333  0.00000000       0.000
   0.32291667  0.32291667  0.00000000       0.000
   0.31250000  0.31250000  0.00000000       0.000
   0.30208333  0.30208333  0.00000000       0.000
   0.29166667  0.29166667  0.00000000       0.000
   0.28125000  0.28125000  0.00000000       0.000
   0.27083333  0.27083333  0.00000000       0.000
   0.26041667  0.26041667  0.00000000       0.000
   0.25000000  0.25000000  0.00000000       0.000
   0.23958333  0.23958333  0.00000000       0.000
   0.22916667  0.22916667  0.00000000       0.000
   0.21875000  0.21875000  0.00000000       0.000
   0.20833333  0.20833333  0.00000000       0.000
   0.19791667  0.19791667  0.00000000       0.000
   0.18750000  0.18750000  0.00000000       0.000
   0.17708333  0.17708333  0.00000000       0.000
   0.16666667  0.16666667  0.00000000       0.000
   0.15625000  0.15625000  0.00000000       0.000
   0.14583333  0.14583333  0.00000000       0.000
   0.13541667  0.13541667  0.00000000       0.000
   0.12500000  0.12500000  0.00000000       0.000
   0.11458333  0.11458333  0.00000000       0.000
   0.10416667  0.10416667  0.00000000       0.000
   0.09375000  0.09375000  0.00000000       0.000
   0.08333333  0.08333333  0.00000000       0.000
   0.07291667  0.07291667  0.00000000       0.000
   0.06250000  0.06250000  0.00000000       0.000
   0.05208333  0.05208333  0.00000000       0.000
   0.04166667  0.04166667  0.00000000       0.000
   0.03125000  0.03125000  0.00000000       0.000
   0.02083333  0.02083333  0.00000000       0.000
   0.01041667  0.01041667  0.00000000       0.000
   0.00000000  0.00000000  0.00000000       0.000

 position of ions in fractional coordinates (direct lattice) 
   0.66667000  0.33333333  0.88244649
   0.11107091  0.22214216  0.50072494
   0.11093665  0.22187363  0.99855681
   0.11425679  0.55712854  0.49819295
   0.11254906  0.55627467  0.99877988
   0.11107091  0.88892910  0.50072494
   0.11093665  0.88906336  0.99855681
   0.43818177  0.21909105  0.48998925
   0.42152289  0.21076161  0.02078332
   0.44287143  0.55712854  0.49819295
   0.44372530  0.55627467  0.99877988
   0.44287143  0.88574321  0.49819295
   0.44372530  0.88745095  0.99877988
   0.78090895  0.21909105  0.48998925
   0.78923839  0.21076161  0.02078332
   0.78090895  0.56181820  0.48998925
   0.78923839  0.57847709  0.02078332
   0.77785784  0.88892910  0.50072494
   0.77812637  0.88906336  0.99855681
   0.21536288  0.10768127  0.25338431
   0.22002625  0.11001295  0.74660649
   0.22198740  0.44397446  0.24853802
   0.22170941  0.44341849  0.74794870
   0.22198740  0.77801260  0.24853802
   0.22170941  0.77829059  0.74794870
   0.55379704  0.10759379  0.25451927
   0.55819002  0.11637975  0.72013104
   0.55379704  0.44620293  0.25451927
   0.55819002  0.44180995  0.72013104
   0.55602551  0.77801260  0.24853802
   0.55658149  0.77829059  0.74794870
   0.89231874  0.10768127  0.25338431
   0.88998706  0.11001295  0.74660649
   0.89240622  0.44620293  0.25451927
   0.88362026  0.44180995  0.72013104
   0.89231874  0.78463712  0.25338431
   0.88998706  0.77997375  0.74660649
   0.11111998  0.22224031  0.18822873
   0.11121277  0.22242589  0.69132299
   0.11024069  0.55512049  0.18827935
   0.11125987  0.55563008  0.69043420
   0.11111998  0.88888002  0.18822873
   0.11121277  0.88878724  0.69132299
   0.44134469  0.22067251  0.20244610
   0.43189811  0.21594922  0.67730804
   0.44487948  0.55512049  0.18827935
   0.44436989  0.55563008  0.69043420
   0.44487948  0.88975932  0.18827935
   0.44436989  0.88874013  0.69043420
   0.77932749  0.22067251  0.20244610
   0.78405078  0.21594922  0.67730804
   0.77932749  0.55865528  0.20244610
   0.78405078  0.56810186  0.67730804
   0.77775969  0.88888002  0.18822873
   0.77757411  0.88878724  0.69132299
   0.21672503  0.10836234  0.43928820
   0.22018382  0.11009174  0.93957355
   0.22200708  0.44401383  0.43917653
   0.22197121  0.44394210  0.93956856
   0.22200708  0.77799292  0.43917653
   0.22197121  0.77802879  0.93956856
   0.55453012  0.10905994  0.44298730
   0.56409673  0.12819316  0.95074917
   0.55453012  0.44546986  0.44298730
   0.56409673  0.43590325  0.95074917
   0.55598614  0.77799292  0.43917653
   0.55605787  0.77802879  0.93956856
   0.89163766  0.10836234  0.43928820
   0.88990827  0.11009174  0.93957355
   0.89094007  0.44546986  0.44298730
   0.87180685  0.43590325  0.95074917
   0.89163766  0.78327497  0.43928820
   0.88990827  0.77981618  0.93957355

 position of ions in cartesian coordinates  (Angst):
   4.64363122  2.68098459  8.74422324
  -0.00000204  1.78667911  4.96171803
  -0.00000204  1.78451938  9.89476839
  -1.52595783  4.48095913  4.93662837
  -1.53785291  4.47409150  9.89697876
  -3.09629586  7.14961568  4.96171803
  -3.09816624  7.15069554  9.89476839
   3.05211073  1.76213919  4.85533730
   2.93607492  1.69514586  0.20594333
   1.52595261  4.48095913  4.93662837
   1.53784769  4.47409150  9.89697876
  -0.00000345  7.12399174  4.93662837
  -0.00000345  7.13772699  9.89697876
   6.23508722  1.76213919  4.85533730
   6.35112307  1.69514586  0.20594333
   4.64359842  4.51867781  4.85533730
   4.64359839  4.65266447  0.20594333
   3.09628901  7.14961568  4.96171803
   3.09815939  7.15069554  9.89476839
   1.50008947  0.86607546  2.51080266
   1.53257170  0.88482909  7.39817524
   0.00000062  3.57086610  2.46278045
   0.00000062  3.56639439  7.41147533
  -1.55113988  6.25751943  2.46278045
  -1.55501249  6.25975528  7.41147533
   4.64360207  0.86537189  2.52204899
   4.64360206  0.93603691  7.13582824
   3.07123567  3.58878955  2.52204899
   3.13243338  3.55345704  7.13582824
   1.55113949  6.25751943  2.46278045
   1.55501211  6.25975528  7.41147533
   7.78711522  0.86607546  2.51080266
   7.75463299  0.88482909  7.39817524
   6.21596745  3.58878955  2.52204899
   6.15476976  3.55345704  7.13582824
   4.64360101  6.31080012  2.51080266
   4.64360102  6.27329286  7.39817524
  -0.00000204  1.78746854  1.86517146
  -0.00000204  1.78896112  6.85036730
  -1.55393163  4.46480844  1.86567304
  -1.54683258  4.46890708  6.84156013
  -3.09561220  7.14922096  1.86517146
  -3.09431958  7.14847467  6.85036730
   3.07414174  1.77485880  2.00605237
   3.00834249  1.73686957  6.71149213
   1.55392641  4.46480844  1.86567304
   1.54682736  4.46890708  6.84156013
  -0.00000346  7.15629311  1.86567304
  -0.00000346  7.14809583  6.84156013
   6.21305621  1.77485880  2.00605237
   6.27885548  1.73686957  6.71149213
   4.64359843  4.49323859  2.00605237
   4.64359841  4.56921704  6.71149213
   3.09560535  7.14922096  1.86517146
   3.09431273  7.14847467  6.85036730
   1.50957741  0.87155333  4.35293707
   1.53366925  0.88546276  9.31029922
   0.00000062  3.57118270  4.35183056
   0.00000062  3.57060580  9.31024970
  -1.55086570  6.25736113  4.35183056
  -1.55136531  6.25764958  9.31024970
   4.64360207  0.87716406  4.38959171
   4.64360203  1.03105166  9.42103916
   3.08144799  3.58289346  4.38959171
   3.21471856  3.50594966  9.42103916
   1.55086532  6.25736113  4.35183056
   1.55136493  6.25764958  9.31024970
   7.77762729  0.87155333  4.35293707
   7.75353543  0.88546276  9.31029922
   6.20575513  3.58289346  4.38959171
   6.07248460  3.50594966  9.42103916
   4.64360102  6.29984439  4.35293707
   4.64360102  6.27202551  9.31029922



--------------------------------------------------------------------------------------------------------


 k-point  1 :   0.0000 0.0000 0.0000  plane waves:   18757
 k-point  2 :   0.5000 0.0000 0.0000  plane waves:   18798
 k-point  3 :   0.0000 0.0000 0.5000  plane waves:   18732
 k-point  4 :   0.5000 0.0000 0.5000  plane waves:   18816
 k-point  5 :   0.0000 0.0000 0.0000  plane waves:   18757
 k-point  6 :   0.0179 0.0000 0.0000  plane waves:   18773
 k-point  7 :   0.0357 0.0000 0.0000  plane waves:   18781
 k-point  8 :   0.0536 0.0000 0.0000  plane waves:   18781
 k-point  9 :   0.0714 0.0000 0.0000  plane waves:   18775
 k-point 10 :   0.0893 0.0000 0.0000  plane waves:   18783
 k-point 11 :   0.1071 0.0000 0.0000  plane waves:   18771
 k-point 12 :   0.1250 0.0000 0.0000  plane waves:   18771
 k-point 13 :   0.1429 0.0000 0.0000  plane waves:   18761
 k-point 14 :   0.1607 0.0000 0.0000  plane waves:   18757
 k-point 15 :   0.1786 0.0000 0.0000  plane waves:   18767
 k-point 16 :   0.1964 0.0000 0.0000  plane waves:   18767
 k-point 17 :   0.2143 0.0000 0.0000  plane waves:   18763
 k-point 18 :   0.2321 0.0000 0.0000  plane waves:   18755
 k-point 19 :   0.2500 0.0000 0.0000  plane waves:   18755
 k-point 20 :   0.2679 0.0000 0.0000  plane waves:   18741
 k-point 21 :   0.2857 0.0000 0.0000  plane waves:   18769
 k-point 22 :   0.3036 0.0000 0.0000  plane waves:   18755
 k-point 23 :   0.3214 0.0000 0.0000  plane waves:   18759
 k-point 24 :   0.3393 0.0000 0.0000  plane waves:   18760
 k-point 25 :   0.3571 0.0000 0.0000  plane waves:   18764
 k-point 26 :   0.3750 0.0000 0.0000  plane waves:   18784
 k-point 27 :   0.3929 0.0000 0.0000  plane waves:   18780
 k-point 28 :   0.4107 0.0000 0.0000  plane waves:   18768
 k-point 29 :   0.4286 0.0000 0.0000  plane waves:   18770
 k-point 30 :   0.4464 0.0000 0.0000  plane waves:   18788
 k-point 31 :   0.4643 0.0000 0.0000  plane waves:   18786
 k-point 32 :   0.4821 0.0000 0.0000  plane waves:   18792
 k-point 33 :   0.5000 0.0000 0.0000  plane waves:   18798
 k-point 34 :   0.5000 0.0000 0.0000  plane waves:   18798
 k-point 35 :   0.4889 0.0222 0.0000  plane waves:   18794
 k-point 36 :   0.4778 0.0444 0.0000  plane waves:   18780
 k-point 37 :   0.4667 0.0667 0.0000  plane waves:   18788
 k-point 38 :   0.4556 0.0889 0.0000  plane waves:   18769
 k-point 39 :   0.4444 0.1111 0.0000  plane waves:   18785
 k-point 40 :   0.4333 0.1333 0.0000  plane waves:   18801
 k-point 41 :   0.4222 0.1556 0.0000  plane waves:   18813
 k-point 42 :   0.4111 0.1778 0.0000  plane waves:   18831
 k-point 43 :   0.4000 0.2000 0.0000  plane waves:   18821
 k-point 44 :   0.3889 0.2222 0.0000  plane waves:   18831
 k-point 45 :   0.3778 0.2444 0.0000  plane waves:   18833
 k-point 46 :   0.3667 0.2667 0.0000  plane waves:   18821
 k-point 47 :   0.3556 0.2889 0.0000  plane waves:   18813
 k-point 48 :   0.3444 0.3111 0.0000  plane waves:   18823
 k-point 49 :   0.3333 0.3333 0.0000  plane waves:   18837
 k-point 50 :   0.3333 0.3333 0.0000  plane waves:   18837
 k-point 51 :   0.3229 0.3229 0.0000  plane waves:   18815
 k-point 52 :   0.3125 0.3125 0.0000  plane waves:   18817
 k-point 53 :   0.3021 0.3021 0.0000  plane waves:   18813
 k-point 54 :   0.2917 0.2917 0.0000  plane waves:   18813
 k-point 55 :   0.2812 0.2812 0.0000  plane waves:   18801
 k-point 56 :   0.2708 0.2708 0.0000  plane waves:   18797
 k-point 57 :   0.2604 0.2604 0.0000  plane waves:   18785
 k-point 58 :   0.2500 0.2500 0.0000  plane waves:   18811
 k-point 59 :   0.2396 0.2396 0.0000  plane waves:   18789
 k-point 60 :   0.2292 0.2292 0.0000  plane waves:   18791
 k-point 61 :   0.2187 0.2187 0.0000  plane waves:   18789
 k-point 62 :   0.2083 0.2083 0.0000  plane waves:   18793
 k-point 63 :   0.1979 0.1979 0.0000  plane waves:   18789
 k-point 64 :   0.1875 0.1875 0.0000  plane waves:   18771
 k-point 65 :   0.1771 0.1771 0.0000  plane waves:   18779
 k-point 66 :   0.1667 0.1667 0.0000  plane waves:   18771
 k-point 67 :   0.1562 0.1562 0.0000  plane waves:   18757
 k-point 68 :   0.1458 0.1458 0.0000  plane waves:   18737
 k-point 69 :   0.1354 0.1354 0.0000  plane waves:   18757
 k-point 70 :   0.1250 0.1250 0.0000  plane waves:   18749
 k-point 71 :   0.1146 0.1146 0.0000  plane waves:   18767
 k-point 72 :   0.1042 0.1042 0.0000  plane waves:   18759
 k-point 73 :   0.0937 0.0937 0.0000  plane waves:   18753
 k-point 74 :   0.0833 0.0833 0.0000  plane waves:   18767
 k-point 75 :   0.0729 0.0729 0.0000  plane waves:   18757
 k-point 76 :   0.0625 0.0625 0.0000  plane waves:   18771
 k-point 77 :   0.0521 0.0521 0.0000  plane waves:   18787
 k-point 78 :   0.0417 0.0417 0.0000  plane waves:   18771
 k-point 79 :   0.0312 0.0312 0.0000  plane waves:   18763
 k-point 80 :   0.0208 0.0208 0.0000  plane waves:   18779
 k-point 81 :   0.0104 0.0104 0.0000  plane waves:   18777
 k-point 82 :   0.0000 0.0000 0.0000  plane waves:   18757

 maximum and minimum number of plane-waves per node :      9429     9341

 maximum number of plane-waves:     18837
 maximum index in each direction: 
   IXMAX=   16   IYMAX=   16   IZMAX=   18
   IXMIN=  -17   IYMIN=  -17   IZMIN=  -18

 WARNING: aliasing errors must be expected set NGX to  68 to avoid them
 WARNING: aliasing errors must be expected set NGY to  68 to avoid them
 WARNING: aliasing errors must be expected set NGZ to  74 to avoid them
 aliasing errors are usually negligible using standard VASP settings
 and one can safely disregard these warnings

 real space projection operators:
  total allocation   :       6449.81 KBytes
  max/ min on nodes  :       3234.81       3215.00


 parallel 3D FFT for wavefunctions:
    minimum data exchange during FFTs selected (reduces bandwidth)
 parallel 3D FFT for charge:
    minimum data exchange during FFTs selected (reduces bandwidth)


 FFT grid for exact exchange (Hartree Fock) 
  NGX = 36; NGY = 36; NGZ = 40


 Radii for the augmentation spheres in the non-local exchange
 for species   1 augmentation radius   1.335 (default was   0.989)
       energy cutoff for augmentation   2000.0
 for species   2 augmentation radius   1.405 (default was   1.041)
       energy cutoff for augmentation   2000.0
 for species   3 augmentation radius   0.957 (default was   0.709)
       energy cutoff for augmentation   2000.0

 real space projection operators:
  total allocation   :       2799.49 KBytes
  max/ min on nodes  :       1410.61       1388.88

 Maximum index for augmentation-charges in exchange          418
  SETUP_FOCK is finished

 total amount of memory used by VASP on root node   125766. kBytes
========================================================================

   base      :      30000. kBytes
   nonlr-proj:       9068. kBytes
   fftplans  :       4804. kBytes
   grid      :       4686. kBytes
   one-center:        113. kBytes
   HF        :         13. kBytes
   wavefun   :      77082. kBytes

     INWAV:  cpu time   47.7371: real time   47.7415
 charge density for first step will be calculated from the start-wavefunctions


--------------------------------------------------------------------------------------------------------


 Maximum index for non-local projection operator          903
 Maximum index for augmentation-charges          402 (set IRDMAX)


--------------------------------------------------------------------------------------------------------


 initial charge from wavefunction
 First call to EWALD:  gamma=   0.196
 Maximum number of real-space cells 3x 3x 3
 Maximum number of reciprocal cells 3x 3x 3

 FEWALD executed in parallel
    FEWALD:  cpu time    0.0041: real time    0.0041


----------------------------------------- Iteration    1(   1)  ---------------------------------------


    POTLOK:  cpu time    0.0680: real time    0.0680
    SETDIJ:  cpu time    0.0495: real time    0.0495
     EDDAV:  cpu time  470.7061: real time  470.7317
       DOS:  cpu time    0.0056: real time    0.0056
    CHARGE:  cpu time    0.0340: real time    0.0340
    MIXING:  cpu time    0.0004: real time    0.0004
    --------------------------------------------
      LOOP:  cpu time  470.8663: real time  471.1878

 eigenvalue-minimisations  : 36544
 total energy-change (2. order) :-0.6763151E+03  (-0.5608008E-05)
 number of electron     290.0000021 magnetization 
 augmentation part        7.8317209 magnetization 

 Free energy of the ion-electron system (eV)
  ---------------------------------------------------
  alpha Z        PSCENC =       293.46281058
  Ewald energy   TEWEN  =    -10864.01145813
  -Hartree energ DENC   =     -2826.42475117
  -exchange      EXHF   =       865.16172906
  -V(xc)+E(xc)   XCENC  =      -149.23302249
  PAW double counting   =    156487.90221406  -155671.51295312
  entropy T*S    EENTRO =        -0.00000000
  eigenvalues    EBANDS =      -215.55115895
  atomic energy  EATOM  =     11403.89151359
  Solvation  Ediel_sol  =         0.00000000
  ---------------------------------------------------
  free energy    TOTEN  =      -676.31507657 eV

  energy without entropy =     -676.31507657  energy(sigma->0) =     -676.31507657
  exchange ACFDT corr.  =         0.00000000  see jH, gK, PRB 81, 115126


--------------------------------------------------------------------------------------------------------




----------------------------------------- Iteration    1(   2)  ---------------------------------------


    POTLOK:  cpu time    0.0490: real time    0.0490
    SETDIJ:  cpu time    0.0495: real time    0.0495
     EDDAV:  cpu time  478.6771: real time  478.7023
       DOS:  cpu time    0.0046: real time    0.0046
    CHARGE:  cpu time    0.0340: real time    0.0340
    MIXING:  cpu time    0.0001: real time    0.0001
    --------------------------------------------
      LOOP:  cpu time  478.8158: real time  478.8808

 eigenvalue-minimisations  : 38144
 total energy-change (2. order) :-0.1347453E-06  (-0.2393323E-06)
 number of electron     290.0000021 magnetization 
 augmentation part        7.8316886 magnetization 

 Free energy of the ion-electron system (eV)
  ---------------------------------------------------
  alpha Z        PSCENC =       293.46281058
  Ewald energy   TEWEN  =    -10864.01145813
  -Hartree energ DENC   =     -2826.41778417
  -exchange      EXHF   =       865.16002274
  -V(xc)+E(xc)   XCENC  =      -149.23337962
  PAW double counting   =    156413.51501494  -155597.12550042
  entropy T*S    EENTRO =        -0.00000000
  eigenvalues    EBANDS =      -215.55631621
  atomic energy  EATOM  =     11403.89151359
  Solvation  Ediel_sol  =         0.00000000
  ---------------------------------------------------
  free energy    TOTEN  =      -676.31507670 eV

  energy without entropy =     -676.31507670  energy(sigma->0) =     -676.31507670
  exchange ACFDT corr.  =        -0.00000000  see jH, gK, PRB 81, 115126


--------------------------------------------------------------------------------------------------------




----------------------------------------- Iteration    1(   3)  ---------------------------------------


    POTLOK:  cpu time    0.0499: real time    0.0499
    SETDIJ:  cpu time    0.0415: real time    0.0415
     EDDAV:  cpu time  483.0414: real time  483.0685
       DOS:  cpu time    0.0040: real time    0.0040
    CHARGE:  cpu time    0.0343: real time    0.0343
    MIXING:  cpu time    0.0002: real time    0.0002
    --------------------------------------------
      LOOP:  cpu time  483.1725: real time  483.2378

 eigenvalue-minimisations  : 38816
 total energy-change (2. order) : 0.1164310E-06  (-0.3574914E-07)
 number of electron     290.0000021 magnetization 
 augmentation part        7.8316916 magnetization 

 Free energy of the ion-electron system (eV)
  ---------------------------------------------------
  alpha Z        PSCENC =       293.46281058
  Ewald energy   TEWEN  =    -10864.01145813
  -Hartree energ DENC   =     -2826.41277497
  -exchange      EXHF   =       865.15984759
  -V(xc)+E(xc)   XCENC  =      -149.23363723
  PAW double counting   =    156365.23131001  -155548.84168797
  entropy T*S    EENTRO =        -0.00000000
  eigenvalues    EBANDS =      -215.56100005
  atomic energy  EATOM  =     11403.89151359
  Solvation  Ediel_sol  =         0.00000000
  ---------------------------------------------------
  free energy    TOTEN  =      -676.31507659 eV

  energy without entropy =     -676.31507659  energy(sigma->0) =     -676.31507659
  exchange ACFDT corr.  =         0.00000000  see jH, gK, PRB 81, 115126


--------------------------------------------------------------------------------------------------------




----------------------------------------- Iteration    1(   4)  ---------------------------------------


    POTLOK:  cpu time    0.0497: real time    0.0497
    SETDIJ:  cpu time    0.0406: real time    0.0406
     EDDAV:  cpu time  518.7446: real time  518.7718
       DOS:  cpu time    0.0039: real time    0.0039
    CHARGE:  cpu time    0.0347: real time    0.0347
    MIXING:  cpu time    0.0002: real time    0.0002
    --------------------------------------------
      LOOP:  cpu time  518.8749: real time  518.9408

 eigenvalue-minimisations  : 43200
 total energy-change (2. order) : 0.7676056E-07  (-0.1079761E-07)
 number of electron     290.0000021 magnetization 
 augmentation part        7.8316965 magnetization 

 Free energy of the ion-electron system (eV)
  ---------------------------------------------------
  alpha Z        PSCENC =       293.46281058
  Ewald energy   TEWEN  =    -10864.01145813
  -Hartree energ DENC   =     -2826.41119009
  -exchange      EXHF   =       865.16024521
  -V(xc)+E(xc)   XCENC  =      -149.23372042
  PAW double counting   =    156334.01449181  -155517.62480028
  entropy T*S    EENTRO =        -0.00000000
  eigenvalues    EBANDS =      -215.56296877
  atomic energy  EATOM  =     11403.89151359
  Solvation  Ediel_sol  =         0.00000000
  ---------------------------------------------------
  free energy    TOTEN  =      -676.31507651 eV

  energy without entropy =     -676.31507651  energy(sigma->0) =     -676.31507651
  exchange ACFDT corr.  =        -0.00000000  see jH, gK, PRB 81, 115126


--------------------------------------------------------------------------------------------------------




----------------------------------------- Iteration    1(   5)  ---------------------------------------


    POTLOK:  cpu time    0.0493: real time    0.0493
    SETDIJ:  cpu time    0.0454: real time    0.0454
     EDDAV:  cpu time  478.8245: real time  478.8471
       DOS:  cpu time    0.0041: real time    0.0041
    CHARGE:  cpu time    0.0340: real time    0.0340
    MIXING:  cpu time    0.0002: real time    0.0002
    --------------------------------------------
      LOOP:  cpu time  478.9589: real time  479.0193

 eigenvalue-minimisations  : 38528
 total energy-change (2. order) : 0.5554261E-07  (-0.2730152E-08)
 number of electron     290.0000021 magnetization 
 augmentation part        7.8316946 magnetization 

 Free energy of the ion-electron system (eV)
  ---------------------------------------------------
  alpha Z        PSCENC =       293.46281058
  Ewald energy   TEWEN  =    -10864.01145813
  -Hartree energ DENC   =     -2826.41130782
  -exchange      EXHF   =       865.16052379
  -V(xc)+E(xc)   XCENC  =      -149.23371723
  PAW double counting   =    156313.94546988  -155497.55576220
  entropy T*S    EENTRO =        -0.00000000
  eigenvalues    EBANDS =      -215.56314891
  atomic energy  EATOM  =     11403.89151359
  Solvation  Ediel_sol  =         0.00000000
  ---------------------------------------------------
  free energy    TOTEN  =      -676.31507646 eV

  energy without entropy =     -676.31507646  energy(sigma->0) =     -676.31507646
  exchange ACFDT corr.  =        -0.00000000  see jH, gK, PRB 81, 115126


--------------------------------------------------------------------------------------------------------




----------------------------------------- Iteration    1(   6)  ---------------------------------------


    POTLOK:  cpu time    0.0496: real time    0.0496
    SETDIJ:  cpu time    0.0411: real time    0.0411
     EDDAV:  cpu time  416.0899: real time  416.1127
       DOS:  cpu time    0.0039: real time    0.0039
    CHARGE:  cpu time    0.0337: real time    0.0337
    MIXING:  cpu time    0.0002: real time    0.0002
    --------------------------------------------
      LOOP:  cpu time  416.2196: real time  416.2808

 eigenvalue-minimisations  : 30176
 total energy-change (2. order) : 0.3771811E-07  (-0.1219527E-08)
 number of electron     290.0000021 magnetization 
 augmentation part        7.8316942 magnetization 

 Free energy of the ion-electron system (eV)
  ---------------------------------------------------
  alpha Z        PSCENC =       293.46281058
  Ewald energy   TEWEN  =    -10864.01145813
  -Hartree energ DENC   =     -2826.41165136
  -exchange      EXHF   =       865.16059238
  -V(xc)+E(xc)   XCENC  =      -149.23370183
  PAW double counting   =    156301.02335391  -155484.63359293
  entropy T*S    EENTRO =        -0.00000000
  eigenvalues    EBANDS =      -215.56294261
  atomic energy  EATOM  =     11403.89151359
  Solvation  Ediel_sol  =         0.00000000
  ---------------------------------------------------
  free energy    TOTEN  =      -676.31507642 eV

  energy without entropy =     -676.31507642  energy(sigma->0) =     -676.31507642
  exchange ACFDT corr.  =         0.00000000  see jH, gK, PRB 81, 115126


--------------------------------------------------------------------------------------------------------




----------------------------------------- Iteration    1(   7)  ---------------------------------------


    POTLOK:  cpu time    0.0537: real time    0.0537
    SETDIJ:  cpu time    0.0429: real time    0.0429
     EDDAV:  cpu time  356.7822: real time  356.7998
       DOS:  cpu time    0.0038: real time    0.0038
    CHARGE:  cpu time    0.0344: real time    0.0344
    MIXING:  cpu time    0.0002: real time    0.0002
    --------------------------------------------
      LOOP:  cpu time  356.9186: real time  356.9754

 eigenvalue-minimisations  : 23552
 total energy-change (2. order) : 0.2307161E-07  (-0.4166821E-09)
 number of electron     290.0000021 magnetization 
 augmentation part        7.8316937 magnetization 

 Free energy of the ion-electron system (eV)
  ---------------------------------------------------
  alpha Z        PSCENC =       293.46281058
  Ewald energy   TEWEN  =    -10864.01145813
  -Hartree energ DENC   =     -2826.41181611
  -exchange      EXHF   =       865.16058153
  -V(xc)+E(xc)   XCENC  =      -149.23369404
  PAW double counting   =    156293.16863337  -155476.77884501
  entropy T*S    EENTRO =        -0.00000000
  eigenvalues    EBANDS =      -215.56280216
  atomic energy  EATOM  =     11403.89151359
  Solvation  Ediel_sol  =         0.00000000
  ---------------------------------------------------
  free energy    TOTEN  =      -676.31507639 eV

  energy without entropy =     -676.31507639  energy(sigma->0) =     -676.31507639
  exchange ACFDT corr.  =         0.00000000  see jH, gK, PRB 81, 115126


--------------------------------------------------------------------------------------------------------




----------------------------------------- Iteration    1(   8)  ---------------------------------------


    POTLOK:  cpu time    0.0489: real time    0.0489
    SETDIJ:  cpu time    0.0445: real time    0.0445
     EDDAV:  cpu time  356.8256: real time  356.8461
       DOS:  cpu time    0.0038: real time    0.0038
    --------------------------------------------
      LOOP:  cpu time  356.9240: real time  356.9868

 eigenvalue-minimisations  : 23616
 total energy-change (2. order) : 0.1370415E-07  (-0.1932162E-09)
 number of electron     290.0000021 magnetization 
 augmentation part        7.8316937 magnetization 

 Free energy of the ion-electron system (eV)
  ---------------------------------------------------
[...]
   0.436E+01 -.252E+01 -.830E+00   -.442E+01 0.255E+01 0.754E+00   0.469E-01 -.271E-01 0.766E-01   -.169E-06 0.212E-06 0.631E-05
   -.514E+01 0.297E+01 0.109E+02   0.166E+01 -.960E+00 -.822E+01   0.341E+01 -.197E+01 -.263E+01   -.788E-05 0.444E-05 -.329E-05
   -.180E-03 0.504E+01 -.830E+00   0.228E-03 -.511E+01 0.754E+00   -.136E-07 0.542E-01 0.766E-01   -.130E-06 0.596E-07 0.636E-05
   -.158E-03 -.594E+01 0.109E+02   0.199E-03 0.192E+01 -.822E+01   -.992E-06 0.394E+01 -.263E+01   0.295E-06 -.890E-05 -.317E-05
   0.140E+01 -.810E+00 0.829E+01   -.518E+00 0.299E+00 -.622E+01   -.861E+00 0.497E+00 -.205E+01   0.304E-05 -.152E-05 0.546E-05
   -.116E+02 0.667E+01 0.245E+00   0.133E+02 -.767E+01 0.181E+01   -.168E+01 0.969E+00 -.200E+01   0.102E-04 -.593E-05 0.651E-06
   -.127E-03 0.162E+01 0.829E+01   0.150E-03 -.598E+00 -.622E+01   0.250E-06 -.994E+00 -.205E+01   0.428E-06 0.323E-05 0.515E-05
   0.224E-04 -.133E+02 0.245E+00   -.292E-03 0.153E+02 0.181E+01   0.488E-06 -.194E+01 -.200E+01   0.534E-07 0.114E-04 0.622E-06
   0.488E+01 0.282E+01 -.196E+01   -.429E+01 -.248E+01 0.204E+01   -.577E+00 -.333E+00 -.693E-01   0.202E-05 0.145E-05 0.533E-05
   0.321E+01 0.185E+01 0.351E+01   -.318E+01 -.184E+01 -.254E+01   -.298E-01 -.172E-01 -.948E+00   0.214E-05 0.171E-05 -.252E-05
   0.160E+01 0.924E+00 0.623E+01   -.178E+01 -.103E+01 -.454E+01   0.169E+00 0.974E-01 -.167E+01   -.374E-05 -.207E-05 0.177E-05
   0.113E+01 0.655E+00 -.951E+01   -.900E+00 -.519E+00 0.791E+01   -.230E+00 -.133E+00 0.157E+01   -.247E-05 -.143E-05 -.470E-05
   0.140E-03 -.363E+01 0.262E+01   -.156E-03 0.335E+01 -.198E+01   -.688E-07 0.273E+00 -.627E+00   -.594E-06 -.371E-05 0.112E-05
   0.761E-04 -.426E+01 -.404E+01   -.475E-04 0.374E+01 0.412E+01   -.130E-06 0.515E+00 -.904E-01   -.348E-07 -.173E-05 -.371E-05
   -.315E+01 0.182E+01 0.262E+01   0.290E+01 -.168E+01 -.198E+01   0.237E+00 -.137E+00 -.627E+00   -.322E-05 0.152E-05 0.155E-05
   -.369E+01 0.213E+01 -.404E+01   0.324E+01 -.187E+01 0.412E+01   0.446E+00 -.258E+00 -.904E-01   -.110E-05 0.956E-06 -.407E-05
   0.169E-03 0.317E+01 0.469E+01   -.260E-03 -.379E+01 -.336E+01   -.152E-06 0.604E+00 -.133E+01   0.577E-06 -.960E-06 0.543E-05
   0.348E-03 0.123E+02 -.116E+02   -.597E-03 -.120E+02 0.867E+01   0.769E-07 -.306E+00 0.282E+01   -.266E-06 -.192E-05 -.772E-05
   0.274E+01 -.158E+01 0.469E+01   -.328E+01 0.189E+01 -.336E+01   0.523E+00 -.302E+00 -.133E+01   -.588E-06 0.833E-06 0.530E-05
   0.107E+02 -.617E+01 -.116E+02   -.104E+02 0.602E+01 0.867E+01   -.265E+00 0.153E+00 0.282E+01   -.188E-05 0.642E-06 -.740E-05
   0.315E+01 0.182E+01 0.262E+01   -.290E+01 -.168E+01 -.198E+01   -.237E+00 -.137E+00 -.627E+00   0.358E-05 0.211E-05 0.121E-05
   0.369E+01 0.213E+01 -.404E+01   -.324E+01 -.187E+01 0.412E+01   -.446E+00 -.258E+00 -.904E-01   0.109E-05 0.833E-06 -.363E-05
   -.160E+01 0.924E+00 0.623E+01   0.178E+01 -.103E+01 -.454E+01   -.169E+00 0.974E-01 -.167E+01   0.310E-05 -.201E-05 0.154E-05
   -.113E+01 0.655E+00 -.951E+01   0.900E+00 -.520E+00 0.791E+01   0.230E+00 -.133E+00 0.157E+01   0.274E-05 -.120E-05 -.478E-05
   -.274E+01 -.158E+01 0.469E+01   0.328E+01 0.189E+01 -.336E+01   -.523E+00 -.302E+00 -.133E+01   0.106E-05 0.429E-06 0.545E-05
   -.107E+02 -.617E+01 -.116E+02   0.104E+02 0.602E+01 0.867E+01   0.265E+00 0.153E+00 0.282E+01   0.207E-05 0.390E-06 -.799E-05
   0.205E-03 -.185E+01 0.623E+01   -.263E-03 0.206E+01 -.454E+01   0.491E-07 -.195E+00 -.167E+01   -.264E-06 0.386E-05 0.184E-05
   0.233E-03 -.131E+01 -.951E+01   -.311E-03 0.104E+01 0.791E+01   -.668E-07 0.266E+00 0.157E+01   -.302E-07 0.341E-05 -.463E-05
   0.654E-03 -.544E+01 0.452E+01   0.344E-03 0.592E+01 -.468E+01   0.107E-06 -.424E+00 0.138E+00   -.147E-05 -.414E-05 0.102E-05
   0.577E-03 -.491E+01 -.599E+01   0.468E-03 0.508E+01 0.600E+01   0.412E-07 -.164E+00 -.180E-01   -.256E-06 -.254E-05 -.196E-05
   -.576E+01 -.333E+01 0.390E+01   0.604E+01 0.349E+01 -.367E+01   -.251E+00 -.145E+00 -.210E+00   0.218E-05 0.724E-06 0.908E-06
   -.566E+01 -.327E+01 -.126E+02   0.669E+01 0.386E+01 0.134E+02   -.932E+00 -.538E+00 -.790E+00   0.261E-05 0.137E-05 -.325E-05
   -.471E+01 0.272E+01 0.452E+01   0.512E+01 -.296E+01 -.468E+01   -.367E+00 0.212E+00 0.138E+00   -.369E-05 0.121E-05 0.178E-05
   -.425E+01 0.245E+01 -.599E+01   0.440E+01 -.254E+01 0.600E+01   -.142E+00 0.819E-01 -.180E-01   -.166E-05 0.197E-05 -.241E-05
   0.988E+00 0.570E+00 -.417E+01   -.287E+00 -.166E+00 0.784E+01   -.630E+00 -.364E+00 -.328E+01   -.637E-05 -.393E-05 0.719E-05
   0.935E+01 0.540E+01 -.797E+01   -.108E+02 -.626E+01 0.849E+01   0.131E+01 0.754E+00 -.516E+00   -.916E-05 -.547E-05 -.443E-05
   0.576E+01 -.333E+01 0.390E+01   -.604E+01 0.349E+01 -.367E+01   0.251E+00 -.145E+00 -.210E+00   -.239E-05 0.204E-05 -.143E-06
   0.566E+01 -.327E+01 -.126E+02   -.669E+01 0.386E+01 0.134E+02   0.932E+00 -.538E+00 -.790E+00   -.305E-05 0.832E-06 -.165E-05
   0.724E-03 0.665E+01 0.390E+01   0.215E-03 -.698E+01 -.367E+01   -.730E-07 0.290E+00 -.210E+00   0.415E-06 -.316E-05 0.223E-06
   0.743E-03 0.653E+01 -.126E+02   0.196E-03 -.773E+01 0.134E+02   -.271E-06 0.108E+01 -.790E+00   -.687E-06 -.235E-05 -.243E-05
   -.987E+00 0.570E+00 -.417E+01   0.288E+00 -.166E+00 0.784E+01   0.630E+00 -.364E+00 -.328E+01   0.774E-05 -.386E-05 0.728E-05
   -.934E+01 0.540E+01 -.797E+01   0.108E+02 -.626E+01 0.848E+01   -.131E+01 0.754E+00 -.516E+00   0.893E-05 -.449E-05 -.527E-05
   0.706E-03 -.114E+01 -.417E+01   0.543E-04 0.332E+00 0.784E+01   -.183E-06 0.727E+00 -.328E+01   0.983E-06 0.826E-05 0.774E-05
   0.893E-03 -.108E+02 -.797E+01   -.210E-03 0.125E+02 0.849E+01   0.379E-06 -.151E+01 -.516E+00   0.217E-06 0.841E-05 -.465E-05
   0.471E+01 0.272E+01 0.452E+01   -.512E+01 -.296E+01 -.468E+01   0.367E+00 0.212E+00 0.138E+00   0.301E-05 0.275E-05 0.172E-05
   0.425E+01 0.245E+01 -.599E+01   -.440E+01 -.254E+01 0.600E+01   0.142E+00 0.819E-01 -.180E-01   0.195E-05 0.185E-05 -.170E-05
   0.203E+01 0.117E+01 -.102E+01   -.275E+01 -.159E+01 0.214E+01   0.641E+00 0.370E+00 -.100E+01   -.384E-05 -.249E-05 0.749E-05
   0.108E+01 0.625E+00 0.748E+01   -.267E+01 -.154E+01 -.104E+02   0.142E+01 0.817E+00 0.261E+01   -.623E-05 -.325E-05 -.904E-05
   -.688E-03 -.331E+01 0.806E+00   -.158E-03 0.266E+01 -.896E+00   -.145E-06 0.576E+00 0.696E-01   -.120E-05 -.333E-05 0.672E-05
   -.825E-03 -.520E+01 0.298E+01   0.100E-03 0.493E+01 -.354E+01   -.615E-07 0.244E+00 0.499E+00   0.560E-06 -.153E-05 -.858E-05
   -.286E+01 0.165E+01 0.806E+00   0.231E+01 -.133E+01 -.896E+00   0.499E+00 -.288E+00 0.696E-01   -.352E-05 0.114E-05 0.686E-05
   -.451E+01 0.260E+01 0.298E+01   0.427E+01 -.246E+01 -.354E+01   0.211E+00 -.122E+00 0.499E+00   -.616E-06 0.684E-06 -.822E-05
   -.584E-03 0.471E+01 0.311E+00   -.294E-03 -.453E+01 0.106E+01   0.419E-07 -.166E+00 -.125E+01   0.760E-06 -.530E-06 0.956E-05
   -.135E-03 0.639E+02 -.148E+01   -.165E-02 -.733E+02 0.187E+01   -.212E-05 0.842E+01 -.286E+00   -.235E-06 0.210E-05 -.153E-04
   0.408E+01 -.235E+01 0.311E+00   -.392E+01 0.226E+01 0.106E+01   -.144E+00 0.832E-01 -.125E+01   0.107E-06 -.270E-07 0.907E-05
   0.553E+02 -.319E+02 -.148E+01   -.635E+02 0.367E+02 0.187E+01   0.729E+01 -.421E+01 -.286E+00   0.142E-05 -.167E-05 -.158E-04
   0.286E+01 0.165E+01 0.806E+00   -.231E+01 -.133E+01 -.896E+00   -.499E+00 -.288E+00 0.696E-01   0.344E-05 0.261E-05 0.626E-05
   0.451E+01 0.260E+01 0.298E+01   -.427E+01 -.246E+01 -.354E+01   -.211E+00 -.122E+00 0.499E+00   0.100E-05 0.769E-06 -.767E-05
   -.203E+01 0.117E+01 -.102E+01   0.275E+01 -.159E+01 0.214E+01   -.641E+00 0.370E+00 -.100E+01   0.284E-05 -.176E-05 0.625E-05
   -.108E+01 0.625E+00 0.748E+01   0.267E+01 -.154E+01 -.104E+02   -.142E+01 0.817E+00 0.261E+01   0.640E-05 -.403E-05 -.743E-05
   -.408E+01 -.235E+01 0.311E+00   0.392E+01 0.226E+01 0.106E+01   0.144E+00 0.832E-01 -.125E+01   0.748E-06 0.330E-06 0.890E-05
   -.553E+02 -.319E+02 -.148E+01   0.635E+02 0.367E+02 0.187E+01   -.729E+01 -.421E+01 -.286E+00   -.189E-05 -.183E-05 -.145E-04
   -.756E-03 -.235E+01 -.102E+01   -.292E-03 0.318E+01 0.214E+01   0.186E-06 -.741E+00 -.100E+01   0.213E-06 0.435E-05 0.588E-05
   -.681E-03 -.125E+01 0.748E+01   -.377E-03 0.308E+01 -.104E+02   0.411E-06 -.163E+01 0.261E+01   -.845E-06 0.786E-05 -.827E-05
 -----------------------------------------------------------------------------------------------
   0.124E-02 0.377E-03 0.179E+02   0.289E-13 -.622E-13 0.693E-13   0.104E-14 0.133E-14 -.173E+02   -.163E-05 -.168E-05 -.368E-04


 POSITION                                       TOTAL-FORCE (eV/Angst)
 -----------------------------------------------------------------------------------
      4.64363      2.68098      8.74422              NaN           NaN           NaN
     -0.00000      1.78668      4.96172              NaN           NaN           NaN
     -0.00000      1.78452      9.89477              NaN           NaN           NaN
     -1.52596      4.48096      4.93663              NaN           NaN           NaN
     -1.53785      4.47409      9.89698              NaN           NaN           NaN
     -3.09630      7.14962      4.96172              NaN           NaN           NaN
     -3.09817      7.15070      9.89477              NaN           NaN           NaN
      3.05211      1.76214      4.85534              NaN           NaN           NaN
      2.93607      1.69515      0.20594              NaN           NaN           NaN
      1.52595      4.48096      4.93663              NaN           NaN           NaN
      1.53785      4.47409      9.89698              NaN           NaN           NaN
     -0.00000      7.12399      4.93663              NaN           NaN           NaN
     -0.00000      7.13773      9.89698              NaN           NaN           NaN
      6.23509      1.76214      4.85534              NaN           NaN           NaN
      6.35112      1.69515      0.20594              NaN           NaN           NaN
      4.64360      4.51868      4.85534              NaN           NaN           NaN
      4.64360      4.65266      0.20594              NaN           NaN           NaN
      3.09629      7.14962      4.96172              NaN           NaN           NaN
      3.09816      7.15070      9.89477              NaN           NaN           NaN
      1.50009      0.86608      2.51080              NaN           NaN           NaN
      1.53257      0.88483      7.39818              NaN           NaN           NaN
      0.00000      3.57087      2.46278              NaN           NaN           NaN
      0.00000      3.56639      7.41148              NaN           NaN           NaN
     -1.55114      6.25752      2.46278              NaN           NaN           NaN
     -1.55501      6.25976      7.41148              NaN           NaN           NaN
      4.64360      0.86537      2.52205              NaN           NaN           NaN
      4.64360      0.93604      7.13583              NaN           NaN           NaN
      3.07124      3.58879      2.52205              NaN           NaN           NaN
      3.13243      3.55346      7.13583              NaN           NaN           NaN
      1.55114      6.25752      2.46278              NaN           NaN           NaN
      1.55501      6.25976      7.41148              NaN           NaN           NaN
      7.78712      0.86608      2.51080              NaN           NaN           NaN
      7.75463      0.88483      7.39818              NaN           NaN           NaN
      6.21597      3.58879      2.52205              NaN           NaN           NaN
      6.15477      3.55346      7.13583              NaN           NaN           NaN
      4.64360      6.31080      2.51080              NaN           NaN           NaN
      4.64360      6.27329      7.39818              NaN           NaN           NaN
     -0.00000      1.78747      1.86517              NaN           NaN           NaN
     -0.00000      1.78896      6.85037              NaN           NaN           NaN
     -1.55393      4.46481      1.86567              NaN           NaN           NaN
     -1.54683      4.46891      6.84156              NaN           NaN           NaN
     -3.09561      7.14922      1.86517              NaN           NaN           NaN
     -3.09432      7.14847      6.85037              NaN           NaN           NaN
      3.07414      1.77486      2.00605              NaN           NaN           NaN
      3.00834      1.73687      6.71149              NaN           NaN           NaN
      1.55393      4.46481      1.86567              NaN           NaN           NaN
      1.54683      4.46891      6.84156              NaN           NaN           NaN
     -0.00000      7.15629      1.86567              NaN           NaN           NaN
     -0.00000      7.14810      6.84156              NaN           NaN           NaN
      6.21306      1.77486      2.00605              NaN           NaN           NaN
      6.27886      1.73687      6.71149              NaN           NaN           NaN
      4.64360      4.49324      2.00605              NaN           NaN           NaN
      4.64360      4.56922      6.71149              NaN           NaN           NaN
      3.09561      7.14922      1.86517              NaN           NaN           NaN
      3.09431      7.14847      6.85037              NaN           NaN           NaN
      1.50958      0.87155      4.35294              NaN           NaN           NaN
      1.53367      0.88546      9.31030              NaN           NaN           NaN
      0.00000      3.57118      4.35183              NaN           NaN           NaN
      0.00000      3.57061      9.31025              NaN           NaN           NaN
     -1.55087      6.25736      4.35183              NaN           NaN           NaN
     -1.55137      6.25765      9.31025              NaN           NaN           NaN
      4.64360      0.87716      4.38959              NaN           NaN           NaN
      4.64360      1.03105      9.42104              NaN           NaN           NaN
      3.08145      3.58289      4.38959              NaN           NaN           NaN
      3.21472      3.50595      9.42104              NaN           NaN           NaN
      1.55087      6.25736      4.35183              NaN           NaN           NaN
      1.55136      6.25765      9.31025              NaN           NaN           NaN
      7.77763      0.87155      4.35294              NaN           NaN           NaN
      7.75354      0.88546      9.31030              NaN           NaN           NaN
      6.20576      3.58289      4.38959              NaN           NaN           NaN
      6.07248      3.50595      9.42104              NaN           NaN           NaN
      4.64360      6.29984      4.35294              NaN           NaN           NaN
      4.64360      6.27203      9.31030              NaN           NaN           NaN
 -----------------------------------------------------------------------------------
    total drift:                                     NaN           NaN           NaN


--------------------------------------------------------------------------------------------------------



  FREE ENERGIE OF THE ION-ELECTRON SYSTEM (eV)
  ---------------------------------------------------
  free  energy   TOTEN  =      -676.31507638 eV

  energy  without entropy=     -676.31507638  energy(sigma->0) =     -676.31507638



--------------------------------------------------------------------------------------------------------


    POTLOK:  cpu time    0.0992: real time    0.0999


--------------------------------------------------------------------------------------------------------


     LOOP+:  cpu time 3987.6921: real time 3988.4738
    4ORBIT:  cpu time    0.0000: real time    0.0000



 total charge     

# of ion     s       p       d       tot
----------------------------------------
  1        0.824   1.052   0.000   1.876
  2        0.446   0.469   0.000   0.915
  3        0.447   0.473   0.000   0.919
  4        0.446   0.469   0.000   0.916
  5        0.434   0.439   0.000   0.872
  6        0.446   0.469   0.000   0.915
  7        0.447   0.473   0.000   0.919
  8        0.449   0.478   0.000   0.928
  9        0.463   0.488   0.000   0.951
 10        0.447   0.469   0.000   0.916
 11        0.434   0.438   0.000   0.873
 12        0.447   0.469   0.000   0.916
 13        0.434   0.438   0.000   0.873
 14        0.449   0.479   0.000   0.928
 15        0.461   0.488   0.000   0.949
 16        0.449   0.479   0.000   0.928
 17        0.461   0.488   0.000   0.949
 18        0.446   0.469   0.000   0.916
 19        0.447   0.473   0.000   0.920
 20        0.452   0.481   0.000   0.933
 21        0.447   0.474   0.000   0.922
 22        0.443   0.461   0.000   0.905
 23        0.444   0.466   0.000   0.910
 24        0.443   0.461   0.000   0.905
 25        0.444   0.466   0.000   0.910
 26        0.446   0.469   0.000   0.915
 27        0.442   0.444   0.000   0.886
 28        0.446   0.469   0.000   0.915
 29        0.442   0.444   0.000   0.886
 30        0.444   0.462   0.000   0.905
 31        0.444   0.466   0.000   0.910
 32        0.452   0.481   0.000   0.933
 33        0.448   0.475   0.000   0.923
 34        0.445   0.469   0.000   0.914
 35        0.441   0.444   0.000   0.885
 36        0.452   0.481   0.000   0.933
 37        0.448   0.475   0.000   0.923
 38        1.225   2.664   0.000   3.890
 39        1.225   2.676   0.000   3.901
 40        1.224   2.660   0.000   3.884
 41        1.225   2.661   0.000   3.886
 42        1.225   2.664   0.000   3.890
 43        1.225   2.676   0.000   3.901
 44        1.228   2.679   0.000   3.907
 45        1.233   2.682   0.000   3.915
 46        1.225   2.658   0.000   3.883
 47        1.224   2.661   0.000   3.885
 48        1.225   2.658   0.000   3.883
 49        1.224   2.661   0.000   3.885
 50        1.228   2.678   0.000   3.907
 51        1.234   2.679   0.000   3.914
 52        1.228   2.678   0.000   3.907
 53        1.234   2.679   0.000   3.914
 54        1.225   2.665   0.000   3.890
 55        1.226   2.675   0.000   3.901
 56        1.228   2.692   0.000   3.920
 57        1.227   2.677   0.000   3.904
 58        1.224   2.662   0.000   3.887
 59        1.224   2.655   0.000   3.879
 60        1.224   2.662   0.000   3.887
 61        1.224   2.655   0.000   3.879
 62        1.226   2.670   0.000   3.896
 63        1.231   2.618   0.000   3.848
 64        1.226   2.670   0.000   3.896
 65        1.231   2.618   0.000   3.848
 66        1.225   2.663   0.000   3.887
 67        1.224   2.657   0.000   3.881
 68        1.228   2.690   0.000   3.918
 69        1.228   2.676   0.000   3.904
 70        1.226   2.669   0.000   3.895
 71        1.231   2.616   0.000   3.847
 72        1.228   2.690   0.000   3.918
 73        1.228   2.676   0.000   3.904
------------------------------------------------
tot       61.070 113.862   0.000 174.932


 total amount of memory used by VASP on root node   135414. kBytes
========================================================================

   base      :      30000. kBytes
   nonlr-proj:      18716. kBytes
   fftplans  :       4804. kBytes
   grid      :       4686. kBytes
   one-center:        113. kBytes
   HF        :         13. kBytes
   wavefun   :      77082. kBytes

  
  
 General timing and accounting informations for this job:
 ========================================================
  
                  Total CPU time used (sec):     4066.926
                            User time (sec):     4020.924
                          System time (sec):       46.002
                         Elapsed time (sec):     4072.467
  
                   Maximum memory used (kb):      602180.
                   Average memory used (kb):           0.
  
                          Minor page faults:      7500660
                          Major page faults:         1267
                 Voluntary context switches:          872
