  72  72   0   0
  0.1028018E+02  0.9287202E-09  0.9287204E-09  0.9909069E-09  0.5000000E-15
   1.0000000000000000E-004
  CAR 
 unknown system                          
     18.52350856    -14.32864405  301      9.76379005      1.00000000
    -14.329  0.0000E+00  0.0000E+00
    -14.219  0.0000E+00  0.0000E+00
    -14.110  0.0000E+00  0.0000E+00
    -14.000  0.0000E+00  0.0000E+00
    -13.891  0.0000E+00  0.0000E+00
    -13.781  0.0000E+00  0.0000E+00
    -13.672  0.0000E+00  0.0000E+00
    -13.562  0.0000E+00  0.0000E+00
    -13.453  0.2154E-14  0.2359E-15
    -13.343  0.8345E-12  0.9162E-13
    -13.234  0.1779E-09  0.1957E-10
    -13.124  0.2106E-07  0.2326E-08
    -13.015  0.1387E-05  0.1542E-06
    -12.905  0.5097E-04  0.5736E-05
    -12.796  0.1048E-02  0.1205E-03
    -12.686  0.1212E-01  0.1447E-02
    -12.577  0.7968E-01  0.1017E-01
    -12.467  0.3073E+00  0.4383E-01
    -12.358  0.7626E+00  0.1273E+00
    -12.248  0.1502E+01  0.2918E+00
    -12.139  0.2845E+01  0.6033E+00
    -12.029  0.4865E+01  0.1136E+01
    -11.919  0.6778E+01  0.1878E+01
    -11.810  0.7841E+01  0.2737E+01
    -11.700  0.8031E+01  0.3616E+01
    -11.591  0.7473E+01  0.4435E+01
    -11.481  0.6583E+01  0.5156E+01
    -11.372  0.6402E+01  0.5857E+01
    -11.262  0.7871E+01  0.6718E+01
    -11.153  0.1172E+02  0.8002E+01
    -11.043  0.1699E+02  0.9863E+01
    -10.934  0.2011E+02  0.1207E+02
    -10.824  0.1896E+02  0.1414E+02
    -10.715  0.1528E+02  0.1582E+02
    -10.605  0.1275E+02  0.1721E+02
    -10.496  0.1426E+02  0.1877E+02
    -10.386  0.1940E+02  0.2090E+02
    -10.277  0.2617E+02  0.2376E+02
    -10.167  0.3349E+02  0.2743E+02
    -10.058  0.3815E+02  0.3161E+02
     -9.948  0.3731E+02  0.3569E+02
     -9.839  0.3535E+02  0.3956E+02
     -9.729  0.3799E+02  0.4372E+02
     -9.620  0.4360E+02  0.4850E+02
     -9.510  0.4711E+02  0.5366E+02
     -9.401  0.4598E+02  0.5869E+02
     -9.291  0.3947E+02  0.6302E+02
     -9.182  0.2926E+02  0.6622E+02
     -9.072  0.1887E+02  0.6829E+02
     -8.963  0.1021E+02  0.6940E+02
     -8.853  0.4363E+01  0.6988E+02
     -8.744  0.2293E+01  0.7013E+02
     -8.634  0.3505E+01  0.7052E+02
     -8.525  0.5340E+01  0.7110E+02
     -8.415  0.4843E+01  0.7163E+02
     -8.306  0.2497E+01  0.7191E+02
     -8.196  0.7289E+00  0.7199E+02
     -8.087  0.1202E+00  0.7200E+02
     -7.977  0.1117E-01  0.7200E+02
     -7.868  0.5839E-03  0.7200E+02
     -7.758  0.1710E-04  0.7200E+02
     -7.649  0.2800E-06  0.7200E+02
     -7.539  0.2558E-08  0.7200E+02
     -7.430  0.1301E-10  0.7200E+02
     -7.320  0.3650E-13  0.7200E+02
     -7.211  0.0000E+00  0.7200E+02
     -7.101  0.0000E+00  0.7200E+02
     -6.992  0.0000E+00  0.7200E+02
     -6.882  0.0000E+00  0.7200E+02
     -6.773  0.0000E+00  0.7200E+02
     -6.663  0.0000E+00  0.7200E+02
     -6.554  0.0000E+00  0.7200E+02
     -6.444  0.0000E+00  0.7200E+02
     -6.335  0.0000E+00  0.7200E+02
     -6.225  0.0000E+00  0.7200E+02
     -6.116  0.0000E+00  0.7200E+02
     -6.006  0.0000E+00  0.7200E+02
     -5.897  0.0000E+00  0.7200E+02
     -5.787  0.0000E+00  0.7200E+02
     -5.678  0.0000E+00  0.7200E+02
     -5.568  0.0000E+00  0.7200E+02
     -5.459  0.0000E+00  0.7200E+02
     -5.349  0.0000E+00  0.7200E+02
     -5.240  0.0000E+00  0.7200E+02
     -5.130  0.0000E+00  0.7200E+02
     -5.021  0.0000E+00  0.7200E+02
     -4.911  0.0000E+00  0.7200E+02
     -4.802  0.0000E+00  0.7200E+02
     -4.692  0.0000E+00  0.7200E+02
     -4.583  0.0000E+00  0.7200E+02
     -4.473  0.0000E+00  0.7200E+02
     -4.363  0.0000E+00  0.7200E+02
     -4.254  0.0000E+00  0.7200E+02
     -4.144  0.0000E+00  0.7200E+02
     -4.035  0.0000E+00  0.7200E+02
     -3.925  0.0000E+00  0.7200E+02
     -3.816  0.0000E+00  0.7200E+02
     -3.706  0.0000E+00  0.7200E+02
     -3.597  0.0000E+00  0.7200E+02
     -3.487  0.0000E+00  0.7200E+02
     -3.378  0.0000E+00  0.7200E+02
     -3.268  0.2788E-13  0.7200E+02
     -3.159  0.9351E-11  0.7200E+02
     -3.049  0.1750E-08  0.7200E+02
     -2.940  0.1839E-06  0.7200E+02
     -2.830  0.1090E-04  0.7200E+02
     -2.721  0.3662E-03  0.7200E+02
     -2.611  0.7013E-02  0.7200E+02
     -2.502  0.7701E-01  0.7201E+02
     -2.392  0.4880E+00  0.7206E+02
     -2.283  0.1798E+01  0.7226E+02
     -2.173  0.3896E+01  0.7269E+02
     -2.064  0.5049E+01  0.7324E+02
     -1.954  0.4025E+01  0.7368E+02
     -1.845  0.2071E+01  0.7391E+02
     -1.735  0.8661E+00  0.7400E+02
     -1.626  0.1074E+01  0.7412E+02
     -1.516  0.3083E+01  0.7446E+02
     -1.407  0.6720E+01  0.7519E+02
     -1.297  0.1026E+02  0.7632E+02
     -1.188  0.1192E+02  0.7762E+02
     -1.078  0.1318E+02  0.7906E+02
     -0.969  0.1834E+02  0.8107E+02
     -0.859  0.2800E+02  0.8414E+02
     -0.750  0.3626E+02  0.8811E+02
     -0.640  0.3877E+02  0.9235E+02
     -0.531  0.3832E+02  0.9655E+02
     -0.421  0.3846E+02  0.1008E+03
     -0.312  0.3877E+02  0.1050E+03
     -0.202  0.3811E+02  0.1092E+03
     -0.093  0.3587E+02  0.1131E+03
      0.017  0.3175E+02  0.1166E+03
      0.126  0.2728E+02  0.1196E+03
      0.236  0.2382E+02  0.1222E+03
      0.345  0.2085E+02  0.1245E+03
      0.455  0.1856E+02  0.1265E+03
      0.564  0.1777E+02  0.1284E+03
      0.674  0.1786E+02  0.1304E+03
      0.783  0.1840E+02  0.1324E+03
      0.893  0.1996E+02  0.1346E+03
      1.002  0.2257E+02  0.1371E+03
      1.112  0.2566E+02  0.1399E+03
      1.221  0.2843E+02  0.1430E+03
      1.331  0.2967E+02  0.1462E+03
      1.440  0.2888E+02  0.1494E+03
      1.550  0.2694E+02  0.1524E+03
      1.659  0.2537E+02  0.1551E+03
      1.769  0.2564E+02  0.1579E+03
      1.878  0.2783E+02  0.1610E+03
      1.988  0.2987E+02  0.1643E+03
      2.097  0.2985E+02  0.1675E+03
      2.207  0.2763E+02  0.1706E+03
      2.316  0.2598E+02  0.1734E+03
      2.426  0.2792E+02  0.1765E+03
      2.535  0.3142E+02  0.1799E+03
      2.645  0.3261E+02  0.1835E+03
      2.754  0.3428E+02  0.1872E+03
      2.864  0.4103E+02  0.1917E+03
      2.973  0.4848E+02  0.1970E+03
      3.083  0.4958E+02  0.2025E+03
      3.193  0.4697E+02  0.2076E+03
      3.302  0.4756E+02  0.2128E+03
      3.412  0.5135E+02  0.2184E+03
      3.521  0.5429E+02  0.2244E+03
      3.631  0.5504E+02  0.2304E+03
      3.740  0.5403E+02  0.2363E+03
      3.850  0.5430E+02  0.2423E+03
      3.959  0.5846E+02  0.2487E+03
      4.069  0.6172E+02  0.2554E+03
      4.178  0.5756E+02  0.2617E+03
      4.288  0.4906E+02  0.2671E+03
      4.397  0.4321E+02  0.2718E+03
      4.507  0.3854E+02  0.2761E+03
      4.616  0.3112E+02  0.2795E+03
      4.726  0.2250E+02  0.2819E+03
      4.835  0.1546E+02  0.2836E+03
      4.945  0.1059E+02  0.2848E+03
      5.054  0.6961E+01  0.2855E+03
      5.164  0.4244E+01  0.2860E+03
      5.273  0.2802E+01  0.2863E+03
      5.383  0.2566E+01  0.2866E+03
      5.492  0.3264E+01  0.2869E+03
      5.602  0.3866E+01  0.2874E+03
      5.711  0.3218E+01  0.2877E+03
      5.821  0.1752E+01  0.2879E+03
      5.930  0.6093E+00  0.2880E+03
      6.040  0.1314E+00  0.2880E+03
      6.149  0.1699E-01  0.2880E+03
      6.259  0.1280E-02  0.2880E+03
      6.368  0.5514E-04  0.2880E+03
      6.478  0.1342E-05  0.2880E+03
      6.587  0.1831E-07  0.2880E+03
      6.697  0.1396E-09  0.2880E+03
      6.806  0.5916E-12  0.2880E+03
      6.916  0.1521E-14  0.2880E+03
      7.025  0.0000E+00  0.2880E+03
      7.135  0.0000E+00  0.2880E+03
      7.244  0.0000E+00  0.2880E+03
      7.354  0.0000E+00  0.2880E+03
      7.463  0.8618E-14  0.2880E+03
      7.573  0.3062E-11  0.2880E+03
      7.682  0.6078E-09  0.2880E+03
      7.792  0.6716E-07  0.2880E+03
      7.901  0.4143E-05  0.2880E+03
      8.011  0.1433E-03  0.2880E+03
      8.120  0.2798E-02  0.2880E+03
      8.230  0.3125E-01  0.2880E+03
      8.339  0.2047E+00  0.2880E+03
      8.449  0.8232E+00  0.2881E+03
      8.558  0.2165E+01  0.2884E+03
      8.668  0.3910E+01  0.2888E+03
      8.777  0.4813E+01  0.2893E+03
      8.887  0.3824E+01  0.2897E+03
      8.996  0.1858E+01  0.2899E+03
      9.106  0.5339E+00  0.2900E+03
      9.215  0.8914E-01  0.2900E+03
      9.325  0.8564E-02  0.2900E+03
      9.434  0.4706E-03  0.2900E+03
      9.544  0.1471E-04  0.2900E+03
      9.653  0.2605E-06  0.2900E+03
      9.763  0.2602E-08  0.2900E+03
      9.872  0.1460E-10  0.2900E+03
      9.982  0.4613E-13  0.2900E+03
     10.091  0.0000E+00  0.2900E+03
     10.201  0.3371E-13  0.2900E+03
     10.310  0.9933E-11  0.2900E+03
     10.420  0.1626E-08  0.2900E+03
     10.529  0.1480E-06  0.2900E+03
     10.639  0.7498E-05  0.2900E+03
     10.748  0.2121E-03  0.2900E+03
     10.858  0.3357E-02  0.2900E+03
     10.968  0.2982E-01  0.2900E+03
     11.077  0.1490E+00  0.2900E+03
     11.187  0.4201E+00  0.2901E+03
     11.296  0.6696E+00  0.2901E+03
     11.406  0.6143E+00  0.2902E+03
     11.515  0.4130E+00  0.2903E+03
     11.625  0.6273E+00  0.2903E+03
     11.734  0.1682E+01  0.2905E+03
     11.844  0.3468E+01  0.2909E+03
     11.953  0.5514E+01  0.2915E+03
     12.063  0.7224E+01  0.2923E+03
     12.172  0.7847E+01  0.2931E+03
     12.282  0.8137E+01  0.2940E+03
     12.391  0.1087E+02  0.2952E+03
     12.501  0.1824E+02  0.2972E+03
     12.610  0.2863E+02  0.3004E+03
     12.720  0.3634E+02  0.3043E+03
     12.829  0.3747E+02  0.3084E+03
     12.939  0.3430E+02  0.3122E+03
     13.048  0.2986E+02  0.3155E+03
     13.158  0.2474E+02  0.3182E+03
     13.267  0.2062E+02  0.3204E+03
     13.377  0.1881E+02  0.3225E+03
     13.486  0.1925E+02  0.3246E+03
     13.596  0.2254E+02  0.3271E+03
     13.705  0.2712E+02  0.3300E+03
     13.815  0.2908E+02  0.3332E+03
     13.924  0.2848E+02  0.3363E+03
     14.034  0.2848E+02  0.3395E+03
     14.143  0.2854E+02  0.3426E+03
     14.253  0.2675E+02  0.3455E+03
     14.362  0.2428E+02  0.3482E+03
     14.472  0.2211E+02  0.3506E+03
     14.581  0.1948E+02  0.3527E+03
     14.691  0.1662E+02  0.3545E+03
     14.800  0.1477E+02  0.3562E+03
     14.910  0.1443E+02  0.3577E+03
     15.019  0.1494E+02  0.3594E+03
     15.129  0.1527E+02  0.3610E+03
     15.238  0.1502E+02  0.3627E+03
     15.348  0.1373E+02  0.3642E+03
     15.457  0.1172E+02  0.3655E+03
     15.567  0.1079E+02  0.3667E+03
     15.676  0.1165E+02  0.3679E+03
     15.786  0.1427E+02  0.3695E+03
     15.895  0.1904E+02  0.3716E+03
     16.005  0.2435E+02  0.3743E+03
     16.114  0.2635E+02  0.3771E+03
     16.224  0.2317E+02  0.3797E+03
     16.333  0.1721E+02  0.3816E+03
     16.443  0.1149E+02  0.3828E+03
     16.552  0.6692E+01  0.3836E+03
     16.662  0.2983E+01  0.3839E+03
     16.771  0.9082E+00  0.3840E+03
     16.881  0.1772E+00  0.3840E+03
     16.990  0.2140E-01  0.3840E+03
     17.100  0.1558E-02  0.3840E+03
     17.209  0.6706E-04  0.3840E+03
     17.319  0.1676E-05  0.3840E+03
     17.428  0.2398E-07  0.3840E+03
     17.538  0.1945E-09  0.3840E+03
     17.647  0.8876E-12  0.3840E+03
     17.757  0.2028E-14  0.3840E+03
     17.866  0.0000E+00  0.3840E+03
     17.976  0.0000E+00  0.3840E+03
     18.085  0.0000E+00  0.3840E+03
     18.195  0.0000E+00  0.3840E+03
     18.304  0.0000E+00  0.3840E+03
     18.414  0.0000E+00  0.3840E+03
     18.524  0.0000E+00  0.3840E+03
