 vasp.5.4.1 24Jun15 (build Oct 18 2022 00:58:31) complex                         
 executed on        GCC_CrayMPICH date 2024.01.16  13:39:00
 running on 1024 total cores
 distrk:  each k-point on  128 cores,    8 groups
 distr:  one band on NCORES_PER_BAND=   4 cores,   32 groups


--------------------------------------------------------------------------------------------------------


 INCAR:
 POTCAR:    PAW_PBE Al 04Jan2001                  
 POTCAR:    PAW_PBE Si 05Jan2001                  
 POTCAR:    PAW_PBE N 08Apr2002                   

 ----------------------------------------------------------------------------- 
|                                                                             |
|           W    W    AA    RRRRR   N    N  II  N    N   GGGG   !!!           |
|           W    W   A  A   R    R  NN   N  II  NN   N  G    G  !!!           |
|           W    W  A    A  R    R  N N  N  II  N N  N  G       !!!           |
|           W WW W  AAAAAA  RRRRR   N  N N  II  N  N N  G  GGG   !            |
|           WW  WW  A    A  R   R   N   NN  II  N   NN  G    G                |
|           W    W  A    A  R    R  N    N  II  N    N   GGGG   !!!           |
|                                                                             |
|      For optimal performance we recommend to set                            |
|        NCORE= 4 - approx SQRT( number of cores)                             |
|      NCORE specifies how many cores store one orbital (NPAR=cpu/NCORE).     |
|      This setting can  greatly improve the performance of VASP for DFT.     |
|      The default, NPAR=number of cores might be grossly inefficient         |
|      on modern multi-core architectures or massively parallel machines.     |
|      Do your own testing !!!!                                               |
|      Unfortunately you need to use the default for GW and RPA calculations. |
|      (for HF NCORE is supported but not extensively tested yet)             |
|                                                                             |
 ----------------------------------------------------------------------------- 


 ----------------------------------------------------------------------------- 
|                                                                             |
|           W    W    AA    RRRRR   N    N  II  N    N   GGGG   !!!           |
|           W    W   A  A   R    R  NN   N  II  NN   N  G    G  !!!           |
|           W    W  A    A  R    R  N N  N  II  N N  N  G       !!!           |
|           W WW W  AAAAAA  RRRRR   N  N N  II  N  N N  G  GGG   !            |
|           WW  WW  A    A  R   R   N   NN  II  N   NN  G    G                |
|           W    W  A    A  R    R  N    N  II  N    N   GGGG   !!!           |
|                                                                             |
|      You have enabled k-point parallelism (KPAR>1).                         |
|      This developmental code was originally  written by Paul Kent at ORNL,  |
|      and carefully double checked in Vienna.                                |
|      GW as well as linear response parallelism added by Martijn Marsman     |
|      and Georg Kresse.                                                      |
|      Carefully verify results versus KPAR=1.                                |
|      Report problems to Paul Kent and Vienna.                               |
|                                                                             |
 ----------------------------------------------------------------------------- 

 POTCAR:    PAW_PBE Al 04Jan2001                  
   VRHFIN =Al: s2p1                                                             
   LEXCH  = PE                                                                  
   EATOM  =    53.5387 eV,    3.9350 Ry                                         
                                                                                
   TITEL  = PAW_PBE Al 04Jan2001                                                
   LULTRA =        F    use ultrasoft PP ?                                      
   IUNSCR =        1    unscreen: 0-lin 1-nonlin 2-no                           
   RPACOR =    1.500    partial core radius                                     
   POMASS =   26.981; ZVAL   =    3.000    mass and valenz                      
   RCORE  =    1.900    outmost cutoff radius                                   
   RWIGS  =    2.650; RWIGS  =    1.402    wigner-seitz radius (au A)           
   ENMAX  =  240.300; ENMIN  =  180.225 eV                                      
   ICORE  =        2    local potential                                         
   LCOR   =        T    correct aug charges                                     
   LPAW   =        T    paw PP                                                  
   EAUG   =  291.052                                                            
   DEXC   =    0.000                                                            
   RMAX   =    1.939    core radius for proj-oper                               
   RAUG   =    1.300    factor for augmentation sphere                          
   RDEP   =    1.966    radius for radial grids                                 
   RDEPT  =    1.856    core radius for aug-charge                              
                                                                                
   Atomic configuration                                                         
    6 entries                                                                   
     n  l   j            E        occ.                                          
     1  0  0.50     -1511.1048   2.0000                                         
     2  0  0.50      -108.1629   2.0000                                         
     2  1  1.50       -69.6402   6.0000                                         
     3  0  0.50        -7.7528   2.0000                                         
     3  1  1.50        -2.7121   1.0000                                         
     3  2  2.50        -2.7212   0.0000                                         
   Description                                                                  
     l       E           TYP  RCUT    TYP  RCUT                                 
     0     -7.7528455     23  1.900                                             
     0     -3.3096929     23  1.900                                             
     1     -2.7120682     23  1.900                                             
     1     13.6058260     23  1.900                                             
     2     -2.7211652      7  1.900                                             
  local pseudopotential read in
  partial core-charges read in
  partial kinetic energy density read in
  atomic valenz-charges read in
  non local Contribution for L=           0  read in
    real space projection operators read in
  non local Contribution for L=           0  read in
    real space projection operators read in
  non local Contribution for L=           1  read in
    real space projection operators read in
  non local Contribution for L=           1  read in
    real space projection operators read in
    PAW grid and wavefunctions read in

   number of l-projection  operators is LMAX  =           4
   number of lm-projection operators is LMMAX =           8

 POTCAR:    PAW_PBE Si 05Jan2001                  
   VRHFIN =Si: s2p2                                                             
   LEXCH  = PE                                                                  
   EATOM  =   103.0669 eV,    7.5752 Ry                                         
                                                                                
   TITEL  = PAW_PBE Si 05Jan2001                                                
   LULTRA =        F    use ultrasoft PP ?                                      
   IUNSCR =        1    unscreen: 0-lin 1-nonlin 2-no                           
   RPACOR =    1.500    partial core radius                                     
   POMASS =   28.085; ZVAL   =    4.000    mass and valenz                      
   RCORE  =    1.900    outmost cutoff radius                                   
   RWIGS  =    2.480; RWIGS  =    1.312    wigner-seitz radius (au A)           
   ENMAX  =  245.345; ENMIN  =  184.009 eV                                      
   ICORE  =        2    local potential                                         
   LCOR   =        T    correct aug charges                                     
   LPAW   =        T    paw PP                                                  
   EAUG   =  322.069                                                            
   DEXC   =    0.000                                                            
   RMAX   =    1.950    core radius for proj-oper                               
   RAUG   =    1.300    factor for augmentation sphere                          
   RDEP   =    1.993    radius for radial grids                                 
   RDEPT  =    1.837    core radius for aug-charge                              
                                                                                
   Atomic configuration                                                         
    6 entries                                                                   
     n  l   j            E        occ.                                          
     1  0  0.50     -1785.8828   2.0000                                         
     2  0  0.50      -139.4969   2.0000                                         
     2  1  1.50       -95.5546   6.0000                                         
     3  0  0.50       -10.8127   2.0000                                         
     3  1  0.50        -4.0811   2.0000                                         
     3  2  1.50        -4.0817   0.0000                                         
   Description                                                                  
     l       E           TYP  RCUT    TYP  RCUT                                 
     0    -10.8127223     23  1.900                                             
     0     -7.6451159     23  1.900                                             
     1     -4.0811372     23  1.900                                             
     1      2.4879257     23  1.900                                             
     2     -4.0817478      7  1.900                                             
  local pseudopotential read in
  partial core-charges read in
  partial kinetic energy density read in
  atomic valenz-charges read in
  non local Contribution for L=           0  read in
    real space projection operators read in
  non local Contribution for L=           0  read in
    real space projection operators read in
  non local Contribution for L=           1  read in
    real space projection operators read in
  non local Contribution for L=           1  read in
    real space projection operators read in
    PAW grid and wavefunctions read in

   number of l-projection  operators is LMAX  =           4
   number of lm-projection operators is LMMAX =           8

 POTCAR:    PAW_PBE N 08Apr2002                   
   VRHFIN =N: s2p3                                                              
   LEXCH  = PE                                                                  
   EATOM  =   264.5486 eV,   19.4438 Ry                                         
                                                                                
   TITEL  = PAW_PBE N 08Apr2002                                                 
   LULTRA =        F    use ultrasoft PP ?                                      
   IUNSCR =        1    unscreen: 0-lin 1-nonlin 2-no                           
   RPACOR =    1.200    partial core radius                                     
   POMASS =   14.001; ZVAL   =    5.000    mass and valenz                      
   RCORE  =    1.500    outmost cutoff radius                                   
   RWIGS  =    1.400; RWIGS  =    0.741    wigner-seitz radius (au A)           
   ENMAX  =  400.000; ENMIN  =  300.000 eV                                      
   ICORE  =        2    local potential                                         
   LCOR   =        T    correct aug charges                                     
   LPAW   =        T    paw PP                                                  
   EAUG   =  627.112                                                            
   DEXC   =    0.000                                                            
   RMAX   =    1.529    core radius for proj-oper                               
   RAUG   =    1.300    factor for augmentation sphere                          
   RDEP   =    1.514    radius for radial grids                                 
   RDEPT  =    1.338    core radius for aug-charge                              
                                                                                
   Atomic configuration                                                         
    4 entries                                                                   
     n  l   j            E        occ.                                          
     1  0  0.50      -384.7179   2.0000                                         
     2  0  0.50       -18.5828   2.0000                                         
     2  1  0.50        -7.0898   3.0000                                         
     3  2  1.50        -6.8029   0.0000                                         
   Description                                                                  
     l       E           TYP  RCUT    TYP  RCUT                                 
     0    -18.5828119     23  1.200                                             
     0    -13.5018863     23  1.200                                             
     1     -7.0897853     23  1.500                                             
     1      9.5240782     23  1.500                                             
     2     -6.8029130      7  1.500                                             
  local pseudopotential read in
  partial core-charges read in
  partial kinetic energy density read in
  atomic valenz-charges read in
  non local Contribution for L=           0  read in
    real space projection operators read in
  non local Contribution for L=           0  read in
    real space projection operators read in
  non local Contribution for L=           1  read in
    real space projection operators read in
  non local Contribution for L=           1  read in
    real space projection operators read in
    PAW grid and wavefunctions read in

   number of l-projection  operators is LMAX  =           4
   number of lm-projection operators is LMMAX =           8

 Optimization of the real space projectors (new method)

 maximal supplied QI-value         = 19.84
 optimisation between [QCUT,QGAM] = [ 11.31, 22.82] = [ 35.82,145.81] Ry 
 Optimized for a Real-space Cutoff    1.07 Angstroem

   l    n(q)    QCUT    max X(q) W(low)/X(q) W(high)/X(q)  e(spline) 
   0      7    11.310   176.870    0.43E-03    0.33E-03    0.78E-07
   0      7    11.310   105.762    0.41E-03    0.33E-03    0.76E-07
   1      7    11.310    55.370    0.40E-03    0.29E-03    0.65E-07
   1      7    11.310    20.208    0.38E-03    0.25E-03    0.60E-07
 Optimization of the real space projectors (new method)

 maximal supplied QI-value         = 19.84
 optimisation between [QCUT,QGAM] = [ 11.31, 22.82] = [ 35.82,145.81] Ry 
 Optimized for a Real-space Cutoff    1.16 Angstroem

   l    n(q)    QCUT    max X(q) W(low)/X(q) W(high)/X(q)  e(spline) 
   0      8    11.310   159.560    0.27E-03    0.30E-03    0.39E-07
   0      8    11.310   115.863    0.27E-03    0.30E-03    0.38E-07
   1      7    11.310    88.339    0.28E-03    0.28E-03    0.77E-07
   1      7    11.310    48.592    0.27E-03    0.27E-03    0.74E-07
 Optimization of the real space projectors (new method)

 maximal supplied QI-value         = 25.13
 optimisation between [QCUT,QGAM] = [ 11.31, 22.87] = [ 35.82,146.48] Ry 
 Optimized for a Real-space Cutoff    1.27 Angstroem

   l    n(q)    QCUT    max X(q) W(low)/X(q) W(high)/X(q)  e(spline) 
   0      9    11.310    79.467    0.75E-04    0.16E-03    0.36E-06
   0      9    11.310    66.151    0.74E-04    0.16E-03    0.36E-06
   1      8    11.310    17.416    0.35E-03    0.12E-03    0.95E-06
   1      8    11.310    12.382    0.37E-03    0.13E-03    0.98E-06
  PAW_PBE Al 04Jan2001                  :
 energy of atom  1       EATOM=  -53.5387
 kinetic energy error for atom=    0.0003 (will be added to EATOM!!)
  PAW_PBE Si 05Jan2001                  :
 energy of atom  2       EATOM= -103.0669
 kinetic energy error for atom=    0.0006 (will be added to EATOM!!)
  PAW_PBE N 08Apr2002                   :
 energy of atom  3       EATOM= -264.5486
 kinetic energy error for atom=    0.0138 (will be added to EATOM!!)


 POSCAR: 20.0% N(Distort)=2 ~[0.1,0.2,0.5]       
  positions in direct lattice
  velocities in cartesian coordinates
 exchange correlation table for  LEXCH =        8
   RHO(1)=    0.500       N(1)  =     2000
   RHO(2)=  100.500       N(2)  =     4000



--------------------------------------------------------------------------------------------------------


 ion  position               nearest neighbor table
   1  0.115  0.224  0.996-  37 1.87  56 1.87  58 1.88  68 1.88  30 3.02  20 3.03  31 3.05  21 3.05
                             5 3.07   7 3.07  19 3.09   9 3.10  17 3.10  18 3.11  13 3.12   3 3.12
   2  0.100  0.539  0.503-  69 1.89  40 1.92  59 1.97  57 1.97  36 2.44  12 2.78  33 2.97  21 2.99
                            32 3.07  14 3.09  20 3.12  23 3.13  22 3.15   8 3.16   4 3.21  10 3.25
   3  0.114  0.560  0.997-  60 1.88  70 1.88  39 1.88  58 1.89  21 3.02  32 3.04  33 3.04  20 3.05
                            23 3.05  22 3.08  11 3.09   5 3.09   9 3.10  15 3.10  13 3.11   1 3.12
   4  0.116  0.893  0.496-  55 1.84  71 1.89  59 1.90  42 1.91  18 2.98  22 3.01  19 3.01  34 3.05
                            23 3.06   6 3.07  35 3.07  10 3.08  16 3.09  14 3.11   2 3.21
   5  0.115  0.893  0.998-  60 1.88  56 1.88  41 1.89  72 1.89  23 3.05  34 3.05  35 3.07   1 3.07
                             7 3.08  22 3.09  11 3.09   3 3.09  19 3.10  17 3.10  18 3.10  15 3.10
   6  0.447  0.223  0.496-  55 1.84  63 1.89  61 1.90  44 1.91  18 2.98  24 3.01  19 3.02  26 3.05
                            25 3.06  27 3.06   4 3.07  10 3.08   8 3.09  14 3.11  12 3.22
   7  0.446  0.225  0.998-  62 1.88  56 1.88  43 1.89  64 1.89  25 3.05  26 3.05  27 3.07   1 3.07
                             5 3.08  24 3.09  11 3.09  13 3.10   9 3.10  19 3.10  18 3.10  15 3.10
   8  0.449  0.557  0.496-  57 1.85  63 1.86  65 1.88  46 1.90  26 3.03  27 3.04  28 3.05  14 3.05
                            29 3.06  20 3.08   6 3.09  21 3.09  16 3.10  10 3.12   2 3.16  36 3.17
   9  0.448  0.559  0.996-  64 1.88  45 1.88  66 1.88  58 1.88  20 3.03  21 3.04  27 3.05  29 3.06
                            28 3.06  26 3.07  15 3.08  17 3.08   7 3.10  11 3.10   1 3.10   3 3.10
  10  0.448  0.892  0.497-  59 1.89  61 1.89  65 1.89  48 1.90  22 3.03  24 3.03  29 3.04  28 3.05
                            25 3.06  23 3.06   6 3.08   4 3.08  16 3.12   8 3.12   2 3.25  12 3.25
  11  0.447  0.892  1.000-  60 1.87  62 1.87  66 1.89  47 1.89  28 3.05  25 3.06  23 3.06  22 3.07
                            24 3.07  29 3.08  13 3.09   3 3.09   7 3.09   5 3.09  17 3.10   9 3.10
  12  0.801  0.239  0.503-  69 1.89  50 1.92  61 1.97  67 1.98  36 2.44   2 2.78  33 2.96  31 2.99
                            32 3.07  14 3.08  30 3.12  25 3.13  24 3.15  16 3.16   6 3.22  10 3.25
  13  0.780  0.225  0.997-  62 1.88  70 1.88  49 1.88  68 1.89  31 3.02  33 3.04  32 3.04  30 3.05
                            25 3.05  24 3.07  11 3.09   7 3.10  15 3.10  17 3.11   3 3.11   1 3.12
  14  0.779  0.560  0.496-  69 1.82  63 1.86  71 1.86  52 1.90  26 3.04  34 3.04  35 3.05   8 3.05
                            16 3.05  27 3.05  32 3.07  12 3.08   2 3.09  33 3.09   6 3.11   4 3.11
  15  0.780  0.559  0.996-  51 1.87  70 1.88  72 1.88  64 1.88  32 3.03  33 3.04  35 3.05  27 3.05
                            26 3.06  34 3.06  17 3.08   9 3.08  13 3.10   7 3.10   3 3.10   5 3.10
  16  0.783  0.890  0.496-  67 1.85  71 1.86  65 1.88  54 1.90  34 3.03  35 3.04  28 3.05  14 3.05
                            29 3.07  30 3.08   4 3.09  31 3.09   8 3.10  10 3.12  12 3.16  36 3.17
  17  0.780  0.891  0.996-  72 1.88  53 1.88  66 1.88  68 1.88  30 3.03  31 3.04  35 3.05  29 3.06
                            28 3.06  34 3.06  15 3.08   9 3.08   5 3.10  11 3.10   1 3.10  13 3.11
  18  0.225  0.114  0.255-  55 1.84  37 1.90  41 1.91  43 1.91   6 2.98   4 2.98  30 3.07  20 3.07
                            26 3.10  34 3.10   7 3.10   5 3.10  22 3.11   1 3.11  24 3.11
  19  0.226  0.113  0.742-  42 1.86  44 1.86  38 1.88  56 1.91   4 3.01   6 3.02  23 3.06  25 3.07
                             1 3.09  27 3.09  35 3.09   5 3.10   7 3.10  31 3.14  21 3.14
  20  0.227  0.445  0.243-  57 1.87  37 1.87  45 1.88  39 1.89   1 3.03   9 3.03   3 3.05  18 3.07
                            26 3.08   8 3.08  30 3.09  28 3.10  22 3.11   2 3.12  36 3.13  32 3.14
  21  0.224  0.450  0.749-  40 1.87  58 1.88  46 1.88  38 1.91  36 2.80   2 2.99   3 3.02   9 3.04
                             1 3.05  33 3.08  29 3.08  23 3.09   8 3.09  27 3.11  31 3.12  19 3.14
  22  0.224  0.779  0.251-  59 1.89  39 1.89  47 1.90  41 1.90   4 3.01  10 3.03  11 3.07   3 3.08
                            32 3.08   5 3.09  34 3.09  28 3.10  20 3.11  18 3.11  24 3.13   2 3.15
  23  0.226  0.784  0.748-  40 1.85  42 1.87  48 1.87  60 1.90   5 3.05   3 3.05   4 3.06  11 3.06
                            25 3.06  10 3.06  19 3.06  21 3.09  35 3.09  29 3.09  33 3.11   2 3.13
  24  0.561  0.116  0.251-  61 1.89  49 1.89  43 1.90  47 1.90   6 3.01  10 3.03  11 3.07  13 3.07
                            32 3.08   7 3.09  26 3.09  28 3.10  30 3.11  18 3.11  22 3.13  12 3.15
  25  0.556  0.113  0.748-  50 1.85  44 1.87  48 1.87  62 1.90   7 3.05  13 3.05   6 3.06  11 3.06
                            10 3.06  23 3.06  19 3.07  27 3.09  31 3.09  29 3.09  33 3.11  12 3.13
  26  0.559  0.447  0.247-  43 1.88  51 1.88  45 1.89  63 1.89   8 3.03  14 3.04   7 3.05   6 3.05
                            15 3.06   9 3.07  20 3.08  32 3.08  24 3.09  18 3.10  28 3.10  34 3.10
  27  0.558  0.447  0.746-  44 1.87  52 1.88  46 1.89  64 1.89   8 3.04  15 3.05  14 3.05   9 3.05
                             6 3.06   7 3.07  25 3.09  19 3.09  33 3.10  35 3.11  29 3.11  21 3.11
  28  0.559  0.781  0.248-  47 1.88  45 1.88  53 1.88  65 1.89  11 3.05  16 3.05   8 3.05  10 3.05
                            17 3.06   9 3.06  34 3.09  26 3.10  20 3.10  22 3.10  30 3.10  24 3.10
  29  0.558  0.781  0.746-  48 1.87  46 1.88  54 1.89  66 1.89  10 3.04   9 3.06  17 3.06   8 3.06
                            16 3.07  11 3.08  21 3.08  31 3.09  23 3.09  25 3.09  35 3.11  27 3.11
  30  0.894  0.113  0.243-  67 1.87  37 1.87  53 1.88  49 1.89   1 3.02  17 3.03  13 3.05  18 3.07
                            34 3.07  16 3.08  20 3.09  28 3.10  24 3.11  12 3.12  36 3.12  32 3.14
  31  0.889  0.115  0.749-  50 1.87  68 1.88  54 1.88  38 1.91  36 2.80  12 2.99  13 3.02  17 3.04
                             1 3.05  33 3.08  29 3.09  25 3.09  16 3.09  35 3.11  21 3.12  19 3.14
  32  0.891  0.449  0.244-  69 1.84  51 1.88  49 1.89  39 1.89  15 3.03   3 3.04  13 3.04   2 3.07
                            12 3.07  14 3.07  34 3.08  26 3.08  24 3.08  22 3.08  20 3.14  30 3.14
  33  0.892  0.448  0.749-  40 1.87  50 1.87  70 1.89  52 1.89  12 2.96   2 2.97  15 3.04   3 3.04
                            13 3.04  21 3.08  31 3.08  14 3.09  35 3.09  27 3.10  23 3.11  25 3.11
  34  0.892  0.781  0.247-  41 1.88  51 1.88  53 1.89  71 1.89  16 3.03  14 3.04   5 3.05   4 3.05
                            15 3.06  17 3.06  30 3.07  32 3.08  22 3.09  28 3.09  26 3.10  18 3.10
  35  0.892  0.781  0.746-  42 1.87  52 1.88  54 1.89  72 1.89  16 3.04  14 3.05  15 3.05  17 3.05
                             4 3.07   5 3.07  23 3.09  19 3.09  33 3.09  27 3.11  29 3.11  31 3.11
  36  0.075  0.265  0.516-  67 1.79  57 1.79  38 1.80  12 2.44   2 2.44  21 2.80  31 2.80  30 3.12
                            20 3.13   8 3.17  16 3.17
  37  0.116  0.224  0.185-   1 1.87  30 1.87  20 1.87  18 1.90
  38  0.114  0.225  0.687-  36 1.80  19 1.88  31 1.91  21 1.91
  39  0.115  0.558  0.187-   3 1.88  20 1.89  22 1.89  32 1.89
  40  0.115  0.563  0.696-  23 1.85  21 1.87  33 1.87   2 1.92
  41  0.114  0.891  0.189-  34 1.88   5 1.89  22 1.90  18 1.91
  42  0.113  0.891  0.688-  19 1.86  35 1.87  23 1.87   4 1.91
  43  0.448  0.225  0.189-  26 1.88   7 1.89  24 1.90  18 1.91
  44  0.448  0.226  0.688-  19 1.86  27 1.87  25 1.87   6 1.91
  45  0.449  0.560  0.186-  20 1.88   9 1.88  28 1.88  26 1.89
  46  0.446  0.558  0.688-  21 1.88  29 1.88  27 1.89   8 1.90
  47  0.448  0.892  0.191-  28 1.88  11 1.89  22 1.90  24 1.90
  48  0.447  0.892  0.689-  29 1.87  25 1.87  23 1.87  10 1.90
  49  0.782  0.225  0.187-  13 1.88  30 1.89  24 1.89  32 1.89
  50  0.776  0.224  0.696-  25 1.85  31 1.87  33 1.87  12 1.92
  51  0.779  0.560  0.185-  15 1.87  34 1.88  32 1.88  26 1.88
  52  0.780  0.559  0.688-  35 1.88  27 1.88  33 1.89  14 1.90
  53  0.780  0.890  0.186-  30 1.88  17 1.88  28 1.88  34 1.89
  54  0.781  0.893  0.688-  31 1.88  29 1.89  35 1.89  16 1.90
  55  0.229  0.110  0.440-   6 1.84   4 1.84  18 1.84
  56  0.225  0.114  0.935-   1 1.87   5 1.88   7 1.88  19 1.91
  57  0.233  0.443  0.431-  36 1.79   8 1.85  20 1.87   2 1.97
  58  0.225  0.447  0.939-  21 1.88   9 1.88   1 1.88   3 1.89
  59  0.223  0.772  0.442-  22 1.89  10 1.89   4 1.90   2 1.97
  60  0.226  0.783  0.940-  11 1.87   5 1.88   3 1.88  23 1.90
  61  0.568  0.117  0.442-  24 1.89  10 1.89   6 1.90  12 1.97
  62  0.557  0.113  0.940-  11 1.87   7 1.88  13 1.88  25 1.90
  63  0.559  0.447  0.438-   8 1.86  14 1.86  26 1.89   6 1.89
  64  0.558  0.447  0.937-   9 1.88  15 1.88   7 1.89  27 1.89
  65  0.560  0.780  0.439-   8 1.88  16 1.88  28 1.89  10 1.89
  66  0.558  0.781  0.937-   9 1.88  17 1.88  11 1.89  29 1.89
  67  0.896  0.106  0.431-  36 1.79  16 1.85  30 1.87  12 1.98
  68  0.892  0.114  0.939-  31 1.88  17 1.88   1 1.88  13 1.89
  69  0.885  0.455  0.430-  14 1.82  32 1.84   2 1.89  12 1.89
  70  0.891  0.448  0.940-  15 1.88   3 1.88  13 1.88  33 1.89
  71  0.892  0.780  0.438-  16 1.86  14 1.86  34 1.89   4 1.89
  72  0.892  0.781  0.937-  17 1.88  15 1.88   5 1.89  35 1.89

  LATTYP: Found a hexagonal cell.
 ALAT       =     9.2872017641
 C/A-ratio  =     1.0669595981
  
  Lattice vectors:
  
 A1 = (   9.2872018814,   0.0000000000,   0.0000000000)
 A2 = (  -4.6436029654,   8.0429537929,   0.0000000000)
 A3 = (   0.0000000000,   0.0000000000,   9.9090690613)


Analysis of symmetry for initial positions (statically):
=====================================================================
 Subroutine PRICEL returns:
 Original cell was already a primitive cell.
 

 Routine SETGRP: Setting up the symmetry group for a 
 hexagonal supercell.


 Subroutine GETGRP returns: Found  1 space group operations
 (whereof  1 operations were pure point group operations)
 out of a pool of 24 trial point group operations.


The static configuration has the point symmetry C_1 .


Analysis of symmetry for dynamics (positions and initial velocities):
=====================================================================
 Subroutine PRICEL returns:
 Original cell was already a primitive cell.
 

 Routine SETGRP: Setting up the symmetry group for a 
 hexagonal supercell.


 Subroutine GETGRP returns: Found  1 space group operations
 (whereof  1 operations were pure point group operations)
 out of a pool of 24 trial point group operations.


The dynamic configuration has the point symmetry C_1 .


 Subroutine INISYM returns: Found  1 space group operations
 (whereof  1 operations are pure point group operations),
 and found     1 'primitive' translations



 KPOINTS: MgAlN                                   

Automatic generation of k-mesh.
Space group operators:
 irot       det(A)        alpha          n_x          n_y          n_z        tau_x        tau_y        tau_z
    1     1.000000     0.000000     1.000000     0.000000     0.000000     0.000000     0.000000     0.000000
 
 Subroutine IBZKPT returns following result:
 ===========================================
 
 Found      8 irreducible k-points:
 
 Following reciprocal coordinates:
            Coordinates               Weight
  0.000000  0.000000  0.000000      1.000000
  0.500000  0.000000  0.000000      1.000000
  0.000000  0.500000  0.000000      1.000000
  0.500000  0.500000  0.000000      1.000000
  0.000000  0.000000  0.500000      1.000000
  0.500000  0.000000  0.500000      1.000000
  0.000000  0.500000  0.500000      1.000000
  0.500000  0.500000  0.500000      1.000000
 
 Following cartesian coordinates:
            Coordinates               Weight
  0.000000  0.000000  0.000000      1.000000
  0.053838  0.031083  0.000000      1.000000
  0.000000  0.062166  0.000000      1.000000
  0.053838  0.093249  0.000000      1.000000
  0.000000  0.000000  0.050459      1.000000
  0.053838  0.031083  0.050459      1.000000
  0.000000  0.062166  0.050459      1.000000
  0.053838  0.093249  0.050459      1.000000
 
 
 Subroutine IBZKPT_HF returns following result:
 ==============================================
 
 Found      8 k-points in 1st BZ
 the following      8 k-points will be used (e.g. in the exchange kernel)
 Following reciprocal coordinates:   # in IRBZ
  0.000000  0.000000  0.000000    0.12500000   1 t-inv F
  0.500000  0.000000  0.000000    0.12500000   2 t-inv F
  0.000000  0.500000  0.000000    0.12500000   3 t-inv F
  0.500000  0.500000  0.000000    0.12500000   4 t-inv F
  0.000000  0.000000  0.500000    0.12500000   5 t-inv F
  0.500000  0.000000  0.500000    0.12500000   6 t-inv F
  0.000000  0.500000  0.500000    0.12500000   7 t-inv F
  0.500000  0.500000  0.500000    0.12500000   8 t-inv F


--------------------------------------------------------------------------------------------------------




 Dimension of arrays:
   k-points           NKPTS =      8   k-points in BZ     NKDIM =      8   number of bands    NBANDS=    192
   number of dos      NEDOS =    301   number of ions     NIONS =     72
   non local maximal  LDIM  =      4   non local SUM 2l+1 LMDIM =      8
   total plane-waves  NPLWV = 157464
   max r-space proj   IRMAX =   1883   max aug-charges    IRDMAX=   8478
   dimension x,y,z NGX =    54 NGY =   54 NGZ =   54
   dimension x,y,z NGXF=   108 NGYF=  108 NGZF=  108
   support grid    NGXF=   108 NGYF=  108 NGZF=  108
   ions per type =              35   1  36
 NGX,Y,Z   is equivalent  to a cutoff of   9.67,  9.67,  9.06 a.u.
 NGXF,Y,Z  is equivalent  to a cutoff of  19.33, 19.33, 18.12 a.u.


 I would recommend the setting:
   dimension x,y,z NGX =    51 NGY =   51 NGZ =   54
 SYSTEM =  unknown system                          
 POSCAR =  20.0% N(Distort)=2 ~[0.1,0.2,0.5]       

 Startparameter for this run:
   NWRITE =      2    write-flag & timer
   PREC   = normal    normal or accurate (medium, high low for compatibility)
   ISTART =      0    job   : 0-new  1-cont  2-samecut
   ICHARG =      2    charge: 1-file 2-atom 10-const
   ISPIN  =      1    spin polarized calculation?
   LNONCOLLINEAR =      F non collinear calculations
   LSORBIT =      F    spin-orbit coupling
   INIWAV =      1    electr: 0-lowe 1-rand  2-diag
   LASPH  =      F    aspherical Exc in radial PAW
   METAGGA=      F    non-selfconsistent MetaGGA calc.

 Electronic Relaxation 1
   ENCUT  =  500.0 eV  36.75 Ry    6.06 a.u.  16.93 16.93 18.07*2*pi/ulx,y,z
   ENINI  =  500.0     initial cutoff
   ENAUG  =  627.1 eV  augmentation charge cutoff
   NELM   =     60;   NELMIN=  2; NELMDL= -5     # of ELM steps 
   EDIFF  = 0.1E-04   stopping-criterion for ELM
   LREAL  =      T    real-space projection
   NLSPLINE    = F    spline interpolate recip. space projectors
   LCOMPAT=      F    compatible to vasp.4.4
   GGA_COMPAT  = T    GGA compatible to vasp.4.4-vasp.4.6
   LMAXPAW     = -100 max onsite density
   LMAXMIX     =    2 max onsite mixed and CHGCAR
   VOSKOWN=      0    Vosko Wilk Nusair interpolation
   ROPT   =   -0.00050  -0.00050  -0.00050
 Ionic relaxation
   EDIFFG = -.2E-01   stopping-criterion for IOM
   NSW    =      0    number of steps for IOM
   NBLOCK =      1;   KBLOCK =      1    inner block; outer block 
   IBRION =     -1    ionic relax: 0-MD 1-quasi-New 2-CG
   NFREE  =      0    steps in history (QN), initial steepest desc. (CG)
   ISIF   =      2    stress and relaxation
   IWAVPR =     10    prediction:  0-non 1-charg 2-wave 3-comb
   ISYM   =      3    0-nonsym 1-usesym 2-fastsym
   LCORR  =      T    Harris-Foulkes like correction to forces

   POTIM  = 0.5000    time-step for ionic-motion
   TEIN   =    0.0    initial temperature
   TEBEG  =    0.0;   TEEND  =   0.0 temperature during run
   SMASS  =  -3.00    Nose mass-parameter (am)
   estimated Nose-frequenzy (Omega)   =  0.10E-29 period in steps =****** mass=  -0.197E-26a.u.
   SCALEE = 1.0000    scale energy and forces
   NPACO  =    256;   APACO  = 16.0  distance and # of slots for P.C.
   PSTRESS=    0.0 pullay stress

  Mass of Ions in am
   POMASS =  26.98 28.09 14.00
  Ionic Valenz
   ZVAL   =   3.00  4.00  5.00
  Atomic Wigner-Seitz radii
   RWIGS  =  -1.00 -1.00 -1.00
  virtual crystal weights 
   VCA    =   1.00  1.00  1.00
   NELECT =     290.0000    total number of electrons
   NUPDOWN=      -1.0000    fix difference up-down

 DOS related values:
   EMIN   =  10.00;   EMAX   =-10.00  energy-range for DOS
   EFERMI =   0.00
   ISMEAR =     0;   SIGMA  =   0.20  broadening in eV -4-tet -1-fermi 0-gaus

 Electronic relaxation 2 (details)
   IALGO  =     58    algorithm
   LDIAG  =      T    sub-space diagonalisation (order eigenvalues)
   LSUBROT=      F    optimize rotation matrix (better conditioning)
   TURBO    =      0    0=normal 1=particle mesh
   IRESTART =      0    0=no restart 2=restart with 2 vectors
   NREBOOT  =      0    no. of reboots
   NMIN     =      0    reboot dimension
   EREF     =   0.00    reference energy to select bands
   IMIX   =      4    mixing-type and parameters
     AMIX     =   0.40;   BMIX     =  1.00
     AMIX_MAG =   1.60;   BMIX_MAG =  1.00
     AMIN     =   0.10
     WC   =   100.;   INIMIX=   1;  MIXPRE=   1;  MAXMIX= -45

 Intra band minimization:
   WEIMIN = 0.0000     energy-eigenvalue tresh-hold
   EBREAK =  0.13E-07  absolut break condition
   DEPER  =   0.30     relativ break condition  

   TIME   =   0.40     timestep for ELM

  volume/ion in A,a.u.               =      10.28        69.37
  Fermi-wavevector in a.u.,A,eV,Ry     =   1.197925  2.263751 19.524700  1.435025
  Thomas-Fermi vector in A             =   2.333828

 Write flags
   LWAVE  =      T    write WAVECAR
   LCHARG =      T    write CHGCAR
   LVTOT  =      T    write LOCPOT, total local potential
   LVHAR  =      F    write LOCPOT, Hartree potential only
   LELF   =      F    write electronic localiz. function (ELF)
   LORBIT =      0    0 simple, 1 ext, 2 COOP (PROOUT)


 Dipole corrections
   LMONO  =      F    monopole corrections only (constant potential shift)
   LDIPOL =      F    correct potential (dipole corrections)
   IDIPOL =      0    1-x, 2-y, 3-z, 4-all directions 
   EPSILON=  1.0000000 bulk dielectric constant

 Exchange correlation treatment:
   GGA     =    --    GGA type
   LEXCH   =     8    internal setting for exchange type
   VOSKOWN=      0    Vosko Wilk Nusair interpolation
   EXXOEP  =     0    0=HF, 1=EXX-LHF (local Hartree Fock) 2=EXX OEP
   LHFCALC =     T    Hartree Fock is set to
   LSYMGRAD=     F    symmetrize gradient (conserves proper symmetry)
   PRECFOCK=fast      Normal, Fast or Accurate (Low or Medium for compatibility)
   LRHFCALC=     F    long range Hartree Fock
   LRSCOR  =     F    long range correlation only (use DFT for short range part)
   LTHOMAS =     F    Thomas Fermi screening in HF
   LMODELHF=     F    short range full HF, long range fraction AEXX
   ENCUT4O =  -1.0   cutoff for four orbital integrals eV
   LMAXFOCK=     4    L truncation for augmentation on plane wave grid
   LMAXFOCKAE=  -1    L truncation for all-electron charge restoration on plane wave grid
   NMAXFOCKAE=   1    number of basis functions for all-electron charge restoration
   LFOCKAEDFT=     F  apply the AE augmentation even for DFT
   NKREDX  =     1    reduce k-point grid by
   NKREDY  =     1    reduce k-point grid by
   NKREDZ  =     1    reduce k-point grid by
   SHIFTRED=     F    shift reduced grid of Gamma
   HFKIDENT=     F    idential grid for each k-point
   ODDONLY =     F    use only odd q-grid points
   EVENONLY=     F    use only even q-grid points
   HFALPHA =   -1.0000 decay constant for conv. correction
   MCALPHA =    0.0000 extent of test-charge in conv. correction in multipole expansion
   AEXX    =    0.3300 exact exchange contribution
   HFSCREEN=    0.2000 screening length (either q_TF or 0.3 A-1)
   HFSCREENC=   0.2000 screening length for correlation (either q_TF or 0.3 A-1)
   HFRCUT  =    0.0000 spherical cutoff for potential kernel
   ALDAX   =    0.6700 LDA exchange part
   AGGAX   =    0.6700 GGA exchange part
   ALDAC   =    1.0000 LDA correlation
   AGGAC   =    1.0000 GGA correlation
   NBANDSGWLOW=     1    first orbital included in HF term
   ENCUTFOCK=  -1.0 apply spherical cutoff to Coloumb kernel
 Linear response parameters
   LEPSILON=     F    determine dielectric tensor
   LRPA    =     F    only Hartree local field effects (RPA)
   LNABLA  =     F    use nabla operator in PAW spheres
   LVEL    =     F    velocity operator in full k-point grid
   LINTERFAST=   F  fast interpolation
   KINTER  =     0    interpolate to denser k-point grid
   CSHIFT  =0.1000    complex shift for real part using Kramers Kronig
   OMEGAMAX=  -1.0    maximum frequency
   DEG_THRESHOLD= 0.2000000E-02 threshold for treating states as degnerate
   RTIME   =    0.100 relaxation time in fs

 Orbital magnetization related:
   ORBITALMAG=     F  switch on orbital magnetization
   LCHIMAG   =     F  perturbation theory with respect to B field
   DQ        =  0.001000  dq finite difference perturbation B field



--------------------------------------------------------------------------------------------------------


 Static calculation
 charge density and potential will be updated during run
 non-spin polarized calculation
 Conjugate gradient for all bands (Freysoldt, et al. PRB 79, 241103 (2009))
 preconditioned conjugated gradient                                        
 perform sub-space diagonalisation
    before iterative eigenvector-optimisation
 modified Broyden-mixing scheme, WC =      100.0
 initial mixing is a Kerker type mixing with AMIX =  0.4000 and BMIX =      1.0000
 Hartree-type preconditioning will be used
 using additional bands           47
 real space projection scheme for non local part
 use partial core corrections
 no Harris-corrections to forces 
 use gradient corrections 
 use of overlap-Matrix (Vanderbilt PP)
 Gauss-broadening in eV      SIGMA  =   0.20


--------------------------------------------------------------------------------------------------------


  energy-cutoff  :      500.00
  volume of cell :      740.17
      direct lattice vectors                 reciprocal lattice vectors
     9.287201881  0.000000000  0.000000000     0.107675058  0.062166243 -0.000000000
    -4.643602965  8.042953793  0.000000000     0.000000000  0.124332431  0.000000000
     0.000000000  0.000000000  9.909069061     0.000000000 -0.000000000  0.100917654

  length of vectors
     9.287201881  9.287203789  9.909069061     0.124332457  0.124332431  0.100917654



 k-points in units of 2pi/SCALE and weight: MgAlN                                   
   0.00000000  0.00000000  0.00000000       0.125
   0.05383753  0.03108312  0.00000000       0.125
   0.00000000  0.06216622  0.00000000       0.125
   0.05383753  0.09324934  0.00000000       0.125
   0.00000000  0.00000000  0.05045883       0.125
   0.05383753  0.03108312  0.05045883       0.125
   0.00000000  0.06216622  0.05045883       0.125
   0.05383753  0.09324934  0.05045883       0.125

 k-points in reciprocal lattice and weights: MgAlN                                   
   0.00000000  0.00000000  0.00000000       0.125
   0.50000000  0.00000000  0.00000000       0.125
   0.00000000  0.50000000  0.00000000       0.125
   0.50000000  0.50000000  0.00000000       0.125
   0.00000000  0.00000000  0.50000000       0.125
   0.50000000  0.00000000  0.50000000       0.125
   0.00000000  0.50000000  0.50000000       0.125
   0.50000000  0.50000000  0.50000000       0.125

 position of ions in fractional coordinates (direct lattice) 
   0.11487848  0.22420186  0.99628513
   0.10023892  0.53876183  0.50259345
   0.11418335  0.55978423  0.99680050
   0.11642352  0.89266263  0.49592404
   0.11450694  0.89310242  0.99808678
   0.44655631  0.22272074  0.49596261
   0.44596233  0.22453274  0.99812517
   0.44886930  0.55654767  0.49618292
   0.44802075  0.55905612  0.99617797
   0.44759542  0.89202567  0.49699163
   0.44694428  0.89232986  0.99962069
   0.80091928  0.23937949  0.50271564
   0.77953692  0.22498823  0.99679528
   0.77911933  0.55991472  0.49601965
   0.77968681  0.55930047  0.99587092
   0.78271098  0.89033037  0.49619883
   0.77995674  0.89080088  0.99618143
   0.22523332  0.11424445  0.25463892
   0.22553821  0.11318989  0.74174116
   0.22662247  0.44549561  0.24320565
   0.22423674  0.45033346  0.74910368
   0.22424013  0.77876374  0.25132663
   0.22583007  0.78357011  0.74827423
   0.56114405  0.11559942  0.25126110
   0.55564736  0.11334006  0.74823147
   0.55864236  0.44716113  0.24730479
   0.55764376  0.44653297  0.74619606
   0.55877882  0.78052558  0.24768026
   0.55761392  0.78117898  0.74594930
   0.89407425  0.11269399  0.24320981
   0.88872226  0.11465992  0.74917526
   0.89071999  0.44887741  0.24385051
   0.89161221  0.44763858  0.74911851
   0.89207386  0.78063669  0.24734173
   0.89215691  0.78111394  0.74609415
   0.07461707  0.26461679  0.51641176
   0.11551610  0.22403621  0.18490309
   0.11387512  0.22510690  0.68651594
   0.11483096  0.55782555  0.18694578
   0.11486854  0.56346381  0.69552996
   0.11424012  0.89147199  0.18869679
   0.11305788  0.89110061  0.68820154
   0.44802204  0.22514634  0.18866568
   0.44776590  0.22574135  0.68821198
   0.44909492  0.55956663  0.18580219
   0.44594257  0.55807710  0.68785436
   0.44764834  0.89205265  0.19059984
   0.44703866  0.89216602  0.68880656
   0.78210893  0.22482900  0.18692070
   0.77579175  0.22429897  0.69559651
   0.77945602  0.55986938  0.18471559
   0.78006647  0.55878820  0.68821585
   0.77979570  0.89025855  0.18580923
   0.78080233  0.89297363  0.68787002
   0.22889220  0.11034929  0.44000152
   0.22499827  0.11407087  0.93481128
   0.23323733  0.44348157  0.43145420
   0.22510952  0.44720489  0.93853913
   0.22285894  0.77204325  0.44160519
   0.22602835  0.78267323  0.93975316
   0.56757993  0.11675243  0.44155059
   0.55670546  0.11332017  0.93975840
   0.55897838  0.44716136  0.43795639
   0.55751933  0.44693877  0.93692705
   0.55956711  0.77967801  0.43866686
   0.55781046  0.78117569  0.93712243
   0.89583949  0.10596766  0.43142637
   0.89185530  0.11378030  0.93856101
   0.88493464  0.45464707  0.42972455
   0.89120648  0.44801912  0.93972698
   0.89198544  0.78014434  0.43794661
   0.89206304  0.78136517  0.93688029

 position of ions in cartesian coordinates  (Angst):
   0.02579523  1.80324520  9.87225819
  -1.57085694  4.33323652  4.98023325
  -1.53897191  4.50231872  9.87736497
  -3.06392207  7.17964429  4.91414551
  -3.08376392  7.18318147  9.89011079
   3.11303193  1.79133259  4.91452776
   3.09910131  1.80590647  9.89049128
   1.58435340  4.47628721  4.91671086
   1.56482449  4.49646250  9.87119630
   0.01469599  7.17452121  4.92472439
   0.00723621  7.17696782  9.90531046
   6.32671571  1.92531818  4.98144399
   6.19496069  1.80956996  9.87731328
   4.63581685  4.50336820  4.91509292
   4.64393944  4.49842786  9.86815372
   3.13485416  7.16088607  4.91686846
   3.10709007  7.16467030  9.87123062
   1.56128150  0.91886280  2.52323469
   1.56901001  0.91038102  7.34996438
   0.03598393  3.58310058  2.40994158
  -0.00863791  3.62201123  7.42292009
  -1.53370624  6.26356076  2.49041292
  -1.54125906  6.30221820  7.41470099
   4.67466026  0.92976082  2.48976355
   4.63410301  0.91158885  7.41427731
   3.11178562  3.59649628  2.45056022
   3.10542838  3.59144402  7.39410831
   1.56504080  6.27773115  2.45428075
   1.55118802  6.28298640  7.39166315
   7.78014194  0.90639255  2.40998276
   7.72130793  0.92220442  7.42362942
   6.18788790  3.61030029  2.41633152
   6.20192672  3.60033640  7.42306707
   4.65990319  6.27862483  2.45092629
   4.65845833  6.28246332  7.39309849
  -0.53579151  2.12830060  5.11715984
   0.03248608  1.80191291  1.83221750
   0.01227414  1.81052441  6.80273383
  -1.52386205  4.48656511  1.85245861
  -1.54969492  4.53191338  6.89205439
  -3.07867088  7.17006800  1.86980955
  -3.08792611  7.16708104  6.81943656
   3.11538086  1.81084164  1.86950124
   3.11023910  1.81562728  6.81954005
   1.57242987  4.50056857  1.84112676
   1.55007021  4.48858837  6.81599632
   0.01506216  7.17473828  1.88866699
   0.00887354  7.17565005  6.82543176
   6.21958688  1.80828930  1.85221009
   6.16337927  1.80402624  6.89271386
   4.63915426  4.50300357  1.83035954
   4.64984422  4.49430768  6.81957838
   3.10811290  7.16030835  1.84119654
   3.10485387  7.18214567  6.81615152
   1.61334979  0.88753428  4.36000543
   1.55990454  0.91746672  9.26310957
   0.10676989  3.56690177  4.27530948
   0.01399560  3.59684823  9.30004902
  -1.51532636  6.20950817  4.37589629
  -1.53525286  6.29500466  9.31207900
   4.72907745  0.93903439  4.37535527
   4.64402212  0.91142889  9.31213086
   3.11490528  3.59649817  4.33974012
   3.10238839  3.59470790  9.28407486
   1.57629763  6.27091422  4.34678020
   1.55302854  6.28296001  9.28601087
   7.82777046  0.85229300  4.27503368
   7.75448969  0.91512971  9.30026586
   6.10736619  3.65670536  4.25817025
   6.19639160  3.60339709  9.31181957
   4.66136831  6.27466490  4.33964320
   4.65641994  6.28448397  9.28361146



--------------------------------------------------------------------------------------------------------


 k-point  1 :   0.0000 0.0000 0.0000  plane waves:   18757
 k-point  2 :   0.5000 0.0000 0.0000  plane waves:   18798
 k-point  3 :   0.0000 0.5000 0.0000  plane waves:   18798
 k-point  4 :   0.5000 0.5000 0.0000  plane waves:   18798
 k-point  5 :   0.0000 0.0000 0.5000  plane waves:   18732
 k-point  6 :   0.5000 0.0000 0.5000  plane waves:   18816
 k-point  7 :   0.0000 0.5000 0.5000  plane waves:   18816
 k-point  8 :   0.5000 0.5000 0.5000  plane waves:   18816

 maximum and minimum number of plane-waves per node :      4718     4675

 maximum number of plane-waves:     18816
 maximum index in each direction: 
   IXMAX=   16   IYMAX=   16   IZMAX=   18
   IXMIN=  -17   IYMIN=  -17   IZMIN=  -18

 WARNING: aliasing errors must be expected set NGX to  68 to avoid them
 WARNING: aliasing errors must be expected set NGY to  68 to avoid them
 WARNING: aliasing errors must be expected set NGZ to  74 to avoid them
 aliasing errors are usually negligible using standard VASP settings
 and one can safely disregard these warnings

 real space projection operators:
  total allocation   :       6369.25 KBytes
  max/ min on nodes  :       1637.50       1546.62


 parallel 3D FFT for wavefunctions:
    minimum data exchange during FFTs selected (reduces bandwidth)
 parallel 3D FFT for charge:
    minimum data exchange during FFTs selected (reduces bandwidth)


 FFT grid for exact exchange (Hartree Fock) 
  NGX = 36; NGY = 36; NGZ = 40


 Radii for the augmentation spheres in the non-local exchange
 for species   1 augmentation radius   1.405 (default was   1.041)
       energy cutoff for augmentation   2000.0
 for species   2 augmentation radius   1.335 (default was   0.989)
       energy cutoff for augmentation   2000.0
 for species   3 augmentation radius   0.957 (default was   0.709)
       energy cutoff for augmentation   2000.0

 real space projection operators:
  total allocation   :       2727.00 KBytes
  max/ min on nodes  :        687.09        673.03

 Maximum index for augmentation-charges in exchange          218
  SETUP_FOCK is finished

 total amount of memory used by VASP on root node    52392. kBytes
========================================================================

   base      :      30000. kBytes
   nonlr-proj:       6174. kBytes
   fftplans  :       2473. kBytes
   grid      :       2401. kBytes
   one-center:         55. kBytes
   HF        :          9. kBytes
   wavefun   :      11280. kBytes

     INWAV:  cpu time    0.0000: real time    0.0000
 Broyden mixing: mesh for mixing (old mesh)
   NGX = 33   NGY = 33   NGZ = 37
  (NGX  =108   NGY  =108   NGZ  =108)
  gives a total of  40293 points

 initial charge density was supplied:
 charge density of overlapping atoms calculated
 number of electron     289.0000000 magnetization 
 keeping initial charge density in first step


--------------------------------------------------------------------------------------------------------


 Maximum index for non-local projection operator          503
 Maximum index for augmentation-charges          249 (set IRDMAX)


--------------------------------------------------------------------------------------------------------


 First call to EWALD:  gamma=   0.196
 Maximum number of real-space cells 3x 3x 3
 Maximum number of reciprocal cells 3x 3x 3

 FEWALD executed in parallel
    FEWALD:  cpu time    0.0172: real time    0.0172


----------------------------------------- Iteration    1(   1)  ---------------------------------------


    POTLOK:  cpu time    0.0389: real time    0.0389
    SETDIJ:  cpu time    0.0489: real time    0.0489
    TRIAL :  cpu time    0.3604: real time    0.3605
    CORREC:  cpu time    0.0009: real time    0.0009
    --------------------------------------------
      LOOP:  cpu time    0.4594: real time    0.4596

 eigenvalue-minimisations  :  3072
 total energy-change (2. order) : 0.1786515E+04  (-0.1434282E+05)
 number of electron     289.0000000 magnetization 
 augmentation part      289.0000000 magnetization 

 Free energy of the ion-electron system (eV)
  ---------------------------------------------------
  alpha Z        PSCENC =       290.88492991
  Ewald energy   TEWEN  =    -10765.12590938
  -Hartree energ DENC   =     -2125.48247221
  -exchange      EXHF   =         0.00000000
  -V(xc)+E(xc)   XCENC  =      -165.22390460
  PAW double counting   =      9700.00789610    -8898.47695327
  entropy T*S    EENTRO =        -0.20790812
  eigenvalues    EBANDS =      2399.05636194
  atomic energy  EATOM  =     11351.08296830
  ---------------------------------------------------
  free energy    TOTEN  =      1786.51500868 eV

  energy without entropy =     1786.72291680  energy(sigma->0) =     1786.61896274
  exchange ACFDT corr.  =         0.00000000  see jH, gK, PRB 81, 115126


--------------------------------------------------------------------------------------------------------




----------------------------------------- Iteration    1(   2)  ---------------------------------------


    TRIAL :  cpu time    0.3531: real time    0.3532
    CORREC:  cpu time    0.0004: real time    0.0004
    --------------------------------------------
      LOOP:  cpu time    0.3547: real time    0.3852

 eigenvalue-minimisations  :  4032
 total energy-change (2. order) :-0.1527638E+04  (-0.1482619E+04)
 number of electron     289.0000000 magnetization 
 augmentation part      289.0000000 magnetization 

 Free energy of the ion-electron system (eV)
  ---------------------------------------------------
  alpha Z        PSCENC =       290.88492991
  Ewald energy   TEWEN  =    -10765.12590938
  -Hartree energ DENC   =     -2125.48247221
  -exchange      EXHF   =         0.00000000
  -V(xc)+E(xc)   XCENC  =      -165.22390460
  PAW double counting   =      9700.00789610    -8898.47695327
  entropy T*S    EENTRO =        -0.00000000
  eigenvalues    EBANDS =       871.21070224
  atomic energy  EATOM  =     11351.08296830
  ---------------------------------------------------
  free energy    TOTEN  =       258.87725709 eV

  energy without entropy =      258.87725709  energy(sigma->0) =      258.87725709
  exchange ACFDT corr.  =         0.00000000  see jH, gK, PRB 81, 115126


--------------------------------------------------------------------------------------------------------




----------------------------------------- Iteration    1(   3)  ---------------------------------------


    TRIAL :  cpu time    0.3230: real time    0.3231
    CORREC:  cpu time    0.0004: real time    0.0004
    --------------------------------------------
      LOOP:  cpu time    0.3245: real time    0.3548

 eigenvalue-minimisations  :  3648
 total energy-change (2. order) :-0.8996100E+02  (-0.8945310E+02)
 number of electron     289.0000000 magnetization 
 augmentation part      289.0000000 magnetization 

 Free energy of the ion-electron system (eV)
  ---------------------------------------------------
  alpha Z        PSCENC =       290.88492991
  Ewald energy   TEWEN  =    -10765.12590938
  -Hartree energ DENC   =     -2125.48247221
  -exchange      EXHF   =         0.00000000
  -V(xc)+E(xc)   XCENC  =      -165.22390460
  PAW double counting   =      9700.00789610    -8898.47695327
  entropy T*S    EENTRO =        -0.00000000
  eigenvalues    EBANDS =       781.24970148
  atomic energy  EATOM  =     11351.08296830
  ---------------------------------------------------
  free energy    TOTEN  =       168.91625633 eV

  energy without entropy =      168.91625633  energy(sigma->0) =      168.91625633
  exchange ACFDT corr.  =         0.00000000  see jH, gK, PRB 81, 115126


--------------------------------------------------------------------------------------------------------




----------------------------------------- Iteration    1(   4)  ---------------------------------------


    TRIAL :  cpu time    0.3226: real time    0.3226
    CORREC:  cpu time    0.0005: real time    0.0005
    --------------------------------------------
      LOOP:  cpu time    0.3240: real time    0.3528

 eigenvalue-minimisations  :  3840
 total energy-change (2. order) :-0.1252342E+01  (-0.1249776E+01)
 number of electron     289.0000000 magnetization 
 augmentation part      289.0000000 magnetization 

 Free energy of the ion-electron system (eV)
  ---------------------------------------------------
  alpha Z        PSCENC =       290.88492991
  Ewald energy   TEWEN  =    -10765.12590938
  -Hartree energ DENC   =     -2125.48247221
  -exchange      EXHF   =         0.00000000
  -V(xc)+E(xc)   XCENC  =      -165.22390460
  PAW double counting   =      9700.00789610    -8898.47695327
  entropy T*S    EENTRO =        -0.00000000
  eigenvalues    EBANDS =       779.99735936
  atomic energy  EATOM  =     11351.08296830
  ---------------------------------------------------
  free energy    TOTEN  =       167.66391421 eV

  energy without entropy =      167.66391421  energy(sigma->0) =      167.66391421
  exchange ACFDT corr.  =         0.00000000  see jH, gK, PRB 81, 115126


--------------------------------------------------------------------------------------------------------




----------------------------------------- Iteration    1(   5)  ---------------------------------------


    TRIAL :  cpu time    0.3632: real time    0.3633
    CORREC:  cpu time    0.0005: real time    0.0005
    CHARGE:  cpu time    0.0209: real time    0.0210
    --------------------------------------------
      LOOP:  cpu time    0.3854: real time    0.4149

 eigenvalue-minimisations  :  4320
 total energy-change (2. order) :-0.3002376E-01  (-0.3001604E-01)
 number of electron     290.0000046 magnetization 
 augmentation part        9.0037119 magnetization 

 Free energy of the ion-electron system (eV)
  ---------------------------------------------------
  alpha Z        PSCENC =       290.88492991
  Ewald energy   TEWEN  =    -10765.12590938
  -Hartree energ DENC   =     -2125.48247221
  -exchange      EXHF   =         0.00000000
  -V(xc)+E(xc)   XCENC  =      -165.22390460
  PAW double counting   =      9700.00789610    -8898.47695327
  entropy T*S    EENTRO =        -0.00000000
  eigenvalues    EBANDS =       779.96733560
  atomic energy  EATOM  =     11351.08296830
  ---------------------------------------------------
  free energy    TOTEN  =       167.63389045 eV

  energy without entropy =      167.63389045  energy(sigma->0) =      167.63389045
  exchange ACFDT corr.  =         0.00000000  see jH, gK, PRB 81, 115126


--------------------------------------------------------------------------------------------------------




----------------------------------------- Iteration    1(   6)  ---------------------------------------


    POTLOK:  cpu time    0.0283: real time    0.0283
    SETDIJ:  cpu time    0.0427: real time    0.0428
    TRIAL :  cpu time   13.1242: real time   13.1256
    CORREC:  cpu time   13.1994: real time   13.2012
    CHARGE:  cpu time    0.0117: real time    0.0117
    --------------------------------------------
      LOOP:  cpu time   26.4074: real time   26.4390

 eigenvalue-minimisations  :     0
 total energy-change (2. order) :-0.8062913E+03  (-0.8773351E+01)
 number of electron     290.0000041 magnetization 
 augmentation part        8.0114438 magnetization 

 Free energy of the ion-electron system (eV)
  ---------------------------------------------------
  alpha Z        PSCENC =       290.88492991
  Ewald energy   TEWEN  =    -10765.12590938
  -Hartree energ DENC   =     -3047.52741314
  -exchange      EXHF   =       881.46472394
  -V(xc)+E(xc)   XCENC  =      -113.88191722
  PAW double counting   =    176879.57338950  -176087.62041855
  entropy T*S    EENTRO =        -0.00000000
  eigenvalues    EBANDS =       -27.50771724
  atomic energy  EATOM  =     11351.08296830
  ---------------------------------------------------
  free energy    TOTEN  =      -638.65736389 eV

  energy without entropy =     -638.65736389  energy(sigma->0) =     -638.65736389
  exchange ACFDT corr.  =        -0.00000000  see jH, gK, PRB 81, 115126


--------------------------------------------------------------------------------------------------------




----------------------------------------- Iteration    1(   7)  ---------------------------------------


    POTLOK:  cpu time    0.0279: real time    0.0279
    SETDIJ:  cpu time    0.0443: real time    0.0443
    TRIAL :  cpu time   12.9755: real time   12.9766
    CORREC:  cpu time   13.1330: real time   13.1340
    CHARGE:  cpu time    0.0196: real time    0.0196
    --------------------------------------------
      LOOP:  cpu time   26.2015: real time   26.2371

 eigenvalue-minimisations  :     0
 total energy-change (2. order) :-0.8772955E+01  (-0.6454716E+00)
 number of electron     290.0000040 magnetization 
 augmentation part        7.8272066 magnetization 

 Free energy of the ion-electron system (eV)
  ---------------------------------------------------
  alpha Z        PSCENC =       290.88492991
  Ewald energy   TEWEN  =    -10765.12590938
  -Hartree energ DENC   =     -2800.20251630
  -exchange      EXHF   =       863.00092067
  -V(xc)+E(xc)   XCENC  =      -126.04420301
  PAW double counting   =    155878.12855681  -155085.26878557
  entropy T*S    EENTRO =        -0.00000000
  eigenvalues    EBANDS =      -253.88628063
  atomic energy  EATOM  =     11351.08296830
  ---------------------------------------------------
  free energy    TOTEN  =      -647.43031920 eV

  energy without entropy =     -647.43031920  energy(sigma->0) =     -647.43031920
  exchange ACFDT corr.  =        -0.00000000  see jH, gK, PRB 81, 115126


--------------------------------------------------------------------------------------------------------




----------------------------------------- Iteration    1(   8)  ---------------------------------------


    POTLOK:  cpu time    0.0277: real time    0.0277
    SETDIJ:  cpu time    0.0451: real time    0.0451
    TRIAL :  cpu time   12.9638: real time   12.9651
    CORREC:  cpu time   13.1978: real time   13.1991
    CHARGE:  cpu time    0.0116: real time    0.0116
    --------------------------------------------
      LOOP:  cpu time   26.2470: real time   26.2789

 eigenvalue-minimisations  :     0
 total energy-change (2. order) :-0.6458496E+00  (-0.8232392E-01)
 number of electron     290.0000040 magnetization 
 augmentation part        7.8620466 magnetization 

 Free energy of the ion-electron system (eV)
  ---------------------------------------------------
  alpha Z        PSCENC =       290.88492991
  Ewald energy   TEWEN  =    -10765.12590938
  -Hartree energ DENC   =     -2799.98157941
  -exchange      EXHF   =       864.26552317
  -V(xc)+E(xc)   XCENC  =      -126.02123861
  PAW double counting   =    160150.25732726  -159356.96065606
  entropy T*S    EENTRO =        -0.00000000
  eigenvalues    EBANDS =      -256.47753395
  atomic energy  EATOM  =     11351.08296830
  ---------------------------------------------------
  free energy    TOTEN  =      -648.07616878 eV

  energy without entropy =     -648.07616878  energy(sigma->0) =     -648.07616878
  exchange ACFDT corr.  =        -0.00000000  see jH, gK, PRB 81, 115126


--------------------------------------------------------------------------------------------------------




----------------------------------------- Iteration    1(   9)  ---------------------------------------


    POTLOK:  cpu time    0.0277: real time    0.0277
    SETDIJ:  cpu time    0.0436: real time    0.0436
    TRIAL :  cpu time   13.0343: real time   13.0358
    CORREC:  cpu time   13.1589: real time   13.1600
    CHARGE:  cpu time    0.0119: real time    0.0119
    --------------------------------------------
      LOOP:  cpu time   26.2775: real time   26.3140

 eigenvalue-minimisations  :     0
 total energy-change (2. order) :-0.8273068E-01  (-0.2201124E-01)
 number of electron     290.0000041 magnetization 
 augmentation part        7.8647617 magnetization 

 Free energy of the ion-electron system (eV)
  ---------------------------------------------------
  alpha Z        PSCENC =       290.88492991
  Ewald energy   TEWEN  =    -10765.12590938
  -Hartree energ DENC   =     -2807.44927539
  -exchange      EXHF   =       865.05041248
  -V(xc)+E(xc)   XCENC  =      -125.65662345
  PAW double counting   =    158991.47407871  -158198.20994524
  entropy T*S    EENTRO =        -0.00000000
  eigenvalues    EBANDS =      -250.20953539
  atomic energy  EATOM  =     11351.08296830
  ---------------------------------------------------
  free energy    TOTEN  =      -648.15889946 eV

  energy without entropy =     -648.15889946  energy(sigma->0) =     -648.15889946
  exchange ACFDT corr.  =        -0.00000000  see jH, gK, PRB 81, 115126


--------------------------------------------------------------------------------------------------------




----------------------------------------- Iteration    1(  10)  ---------------------------------------


    POTLOK:  cpu time    0.0276: real time    0.0276
    SETDIJ:  cpu time    0.0416: real time    0.0416
    TRIAL :  cpu time   13.0193: real time   13.0203
    CORREC:  cpu time   13.1126: real time   13.1138
    CHARGE:  cpu time    0.0114: real time    0.0114
    --------------------------------------------
      LOOP:  cpu time   26.2136: real time   26.2454

 eigenvalue-minimisations  :     0
 total energy-change (2. order) :-0.2214554E-01  (-0.6098767E-02)
 number of electron     290.0000041 magnetization 
 augmentation part        7.8595966 magnetization 

 Free energy of the ion-electron system (eV)
  ---------------------------------------------------
  alpha Z        PSCENC =       290.88492991
  Ewald energy   TEWEN  =    -10765.12590938
  -Hartree energ DENC   =     -2805.45374656
  -exchange      EXHF   =       864.91067149
  -V(xc)+E(xc)   XCENC  =      -125.76455513
  PAW double counting   =    155725.90078831  -154932.65991591
  entropy T*S    EENTRO =        -0.00000000
  eigenvalues    EBANDS =      -251.95627602
  atomic energy  EATOM  =     11351.08296830
  ---------------------------------------------------
  free energy    TOTEN  =      -648.18104500 eV

  energy without entropy =     -648.18104500  energy(sigma->0) =     -648.18104500
  exchange ACFDT corr.  =        -0.00000000  see jH, gK, PRB 81, 115126


--------------------------------------------------------------------------------------------------------




----------------------------------------- Iteration    1(  11)  ---------------------------------------


    POTLOK:  cpu time    0.0276: real time    0.0276
    SETDIJ:  cpu time    0.0430: real time    0.0430
    TRIAL :  cpu time   13.0624: real time   13.0635
    CORREC:  cpu time   13.1674: real time   13.1684
    CHARGE:  cpu time    0.0193: real time    0.0193
    --------------------------------------------
      LOOP:  cpu time   26.3209: real time   26.3570

 eigenvalue-minimisations  :     0
 total energy-change (2. order) :-0.6130726E-02  (-0.1661880E-02)
 number of electron     290.0000041 magnetization 
 augmentation part        7.8623103 magnetization 

 Free energy of the ion-electron system (eV)
  ---------------------------------------------------
  alpha Z        PSCENC =       290.88492991
  Ewald energy   TEWEN  =    -10765.12590938
  -Hartree energ DENC   =     -2805.51516723
  -exchange      EXHF   =       864.92259891
  -V(xc)+E(xc)   XCENC  =      -125.76852380
  PAW double counting   =    153718.27150574  -152925.02824817
  entropy T*S    EENTRO =        -0.00000000
  eigenvalues    EBANDS =      -251.91133000
  atomic energy  EATOM  =     11351.08296830
  ---------------------------------------------------
  free energy    TOTEN  =      -648.18717573 eV

  energy without entropy =     -648.18717573  energy(sigma->0) =     -648.18717573
  exchange ACFDT corr.  =        -0.00000000  see jH, gK, PRB 81, 115126


--------------------------------------------------------------------------------------------------------




----------------------------------------- Iteration    1(  12)  ---------------------------------------


    POTLOK:  cpu time    0.0276: real time    0.0276
    SETDIJ:  cpu time    0.0437: real time    0.0437
    TRIAL :  cpu time   13.0584: real time   13.0595
    CORREC:  cpu time   13.2371: real time   13.2381
    CHARGE:  cpu time    0.0112: real time    0.0112
    --------------------------------------------
      LOOP:  cpu time   26.3791: real time   26.4104

 eigenvalue-minimisations  :     0
 total energy-change (2. order) :-0.1669852E-02  (-0.4276367E-03)
 number of electron     290.0000041 magnetization 
 augmentation part        7.8650046 magnetization 

 Free energy of the ion-electron system (eV)
  ---------------------------------------------------
  alpha Z        PSCENC =       290.88492991
  Ewald energy   TEWEN  =    -10765.12590938
  -Hartree energ DENC   =     -2806.02902788
  -exchange      EXHF   =       864.97951916
  -V(xc)+E(xc)   XCENC  =      -125.74377149
  PAW double counting   =    152871.85570462  -152078.62206040
  entropy T*S    EENTRO =        -0.00000000
  eigenvalues    EBANDS =      -251.47119841
  atomic energy  EATOM  =     11351.08296830
  ---------------------------------------------------
  free energy    TOTEN  =      -648.18884558 eV

  energy without entropy =     -648.18884558  energy(sigma->0) =     -648.18884558
  exchange ACFDT corr.  =        -0.00000000  see jH, gK, PRB 81, 115126


--------------------------------------------------------------------------------------------------------




----------------------------------------- Iteration    1(  13)  ---------------------------------------


    POTLOK:  cpu time    0.0276: real time    0.0276
    SETDIJ:  cpu time    0.0423: real time    0.0424
    TRIAL :  cpu time   12.9615: real time   12.9623
    CORREC:  cpu time   13.1420: real time   13.1432
    CHARGE:  cpu time    0.0119: real time    0.0119
    --------------------------------------------
      LOOP:  cpu time   26.1864: real time   26.2227

 eigenvalue-minimisations  :     0
 total energy-change (2. order) :-0.4309136E-03  (-0.1167705E-03)
 number of electron     290.0000041 magnetization 
 augmentation part        7.8663087 magnetization 

 Free energy of the ion-electron system (eV)
  ---------------------------------------------------
  alpha Z        PSCENC =       290.88492991
  Ewald energy   TEWEN  =    -10765.12590938
  -Hartree energ DENC   =     -2806.03263722
  -exchange      EXHF   =       864.98947213
  -V(xc)+E(xc)   XCENC  =      -125.74271131
  PAW double counting   =    152561.80829617  -151768.58343654
  entropy T*S    EENTRO =        -0.00000000
  eigenvalues    EBANDS =      -251.47024855
  atomic energy  EATOM  =     11351.08296830
  ---------------------------------------------------
  free energy    TOTEN  =      -648.18927649 eV

  energy without entropy =     -648.18927649  energy(sigma->0) =     -648.18927649
  exchange ACFDT corr.  =        -0.00000000  see jH, gK, PRB 81, 115126


--------------------------------------------------------------------------------------------------------




----------------------------------------- Iteration    1(  14)  ---------------------------------------


    POTLOK:  cpu time    0.0276: real time    0.0276
    SETDIJ:  cpu time    0.0441: real time    0.0441
    TRIAL :  cpu time   13.0366: real time   13.0376
    CORREC:  cpu time   13.1675: real time   13.1686
    CHARGE:  cpu time    0.0115: real time    0.0115
    --------------------------------------------
      LOOP:  cpu time   26.2882: real time   26.3195

 eigenvalue-minimisations  :     0
 total energy-change (2. order) :-0.1181883E-03  (-0.2739697E-04)
 number of electron     290.0000041 magnetization 
 augmentation part        7.8662745 magnetization 

 Free energy of the ion-electron system (eV)
  ---------------------------------------------------
  alpha Z        PSCENC =       290.88492991
  Ewald energy   TEWEN  =    -10765.12590938
  -Hartree energ DENC   =     -2806.08703276
  -exchange      EXHF   =       864.99680131
  -V(xc)+E(xc)   XCENC  =      -125.73895360
  PAW double counting   =    152467.29685151  -151674.07505943
  entropy T*S    EENTRO =        -0.00000000
  eigenvalues    EBANDS =      -251.42399054
  atomic energy  EATOM  =     11351.08296830
  ---------------------------------------------------
  free energy    TOTEN  =      -648.18939468 eV

  energy without entropy =     -648.18939468  energy(sigma->0) =     -648.18939468
  exchange ACFDT corr.  =        -0.00000000  see jH, gK, PRB 81, 115126


--------------------------------------------------------------------------------------------------------




----------------------------------------- Iteration    1(  15)  ---------------------------------------


    POTLOK:  cpu time    0.0276: real time    0.0276
    SETDIJ:  cpu time    0.0423: real time    0.0423
    TRIAL :  cpu time   13.0111: real time   13.0125
    CORREC:  cpu time   13.2092: real time   13.2105
    CHARGE:  cpu time    0.0120: real time    0.0120
    --------------------------------------------
      LOOP:  cpu time   26.3033: real time   26.3402

 eigenvalue-minimisations  :     0
 total energy-change (2. order) :-0.2726029E-04  (-0.6647884E-05)
 number of electron     290.0000041 magnetization 
 augmentation part        7.8661486 magnetization 

 Free energy of the ion-electron system (eV)
  ---------------------------------------------------
  alpha Z        PSCENC =       290.88492991
  Ewald energy   TEWEN  =    -10765.12590938
  -Hartree energ DENC   =     -2806.07117131
  -exchange      EXHF   =       864.99566896
  -V(xc)+E(xc)   XCENC  =      -125.73943934
  PAW double counting   =    152398.42201538  -151605.20043027
  entropy T*S    EENTRO =        -0.00000000
  eigenvalues    EBANDS =      -251.43805418
  atomic energy  EATOM  =     11351.08296830
  ---------------------------------------------------
  free energy    TOTEN  =      -648.18942194 eV

  energy without entropy =     -648.18942194  energy(sigma->0) =     -648.18942194
  exchange ACFDT corr.  =        -0.00000000  see jH, gK, PRB 81, 115126


--------------------------------------------------------------------------------------------------------




----------------------------------------- Iteration    1(  16)  ---------------------------------------


    POTLOK:  cpu time    0.0276: real time    0.0276
    SETDIJ:  cpu time    0.0422: real time    0.0422
    TRIAL :  cpu time   13.0089: real time   13.0100
    CORREC:  cpu time   13.1410: real time   13.1423
    CHARGE:  cpu time    0.0119: real time    0.0119
    --------------------------------------------
      LOOP:  cpu time   26.2327: real time   26.2642

 eigenvalue-minimisations  :     0
 total energy-change (2. order) :-0.6465929E-05  (-0.2028395E-05)
 number of electron     290.0000041 magnetization 
 augmentation part        7.8661766 magnetization 

 Free energy of the ion-electron system (eV)
  ---------------------------------------------------
  alpha Z        PSCENC =       290.88492991
  Ewald energy   TEWEN  =    -10765.12590938
  -Hartree energ DENC   =     -2806.06482902
  -exchange      EXHF   =       864.99509730
  -V(xc)+E(xc)   XCENC  =      -125.73981032
  PAW double counting   =    152353.27524515  -151560.05345253
  entropy T*S    EENTRO =        -0.00000000
  eigenvalues    EBANDS =      -251.44366781
  atomic energy  EATOM  =     11351.08296830
  ---------------------------------------------------
  free energy    TOTEN  =      -648.18942841 eV

  energy without entropy =     -648.18942841  energy(sigma->0) =     -648.18942841
  exchange ACFDT corr.  =        -0.00000000  see jH, gK, PRB 81, 115126


--------------------------------------------------------------------------------------------------------


  average scaling for gradient   0.9785


 average (electrostatic) potential at core
  the test charge radii are     1.0406  0.9892  0.7089
  (the norm of the test charge is              1.0000)
       1 -66.3024       2 -65.9695       3 -66.3539       4 -65.8629       5 -66.3235
       6 -65.8619       7 -66.3224       8 -66.2066       9 -66.3617      10 -66.1792
      11 -66.3381      12 -65.9659      13 -66.3528      14 -65.9291      15 -66.2888
      16 -66.2058      17 -66.3620      18 -65.9626      19 -66.2705      20 -66.2623
      21 -66.4631      22 -66.2347      23 -66.1228      24 -66.2373      25 -66.1210
      26 -66.2664      27 -66.3202      28 -66.3151      29 -66.3869      30 -66.2597
      31 -66.4614      32 -66.1355      33 -66.2702      34 -66.2655      35 -66.3188
      36 -76.1021      37 -53.0472      38 -53.6447      39 -53.1021      40 -53.0017
      41 -53.0738      42 -53.0602      43 -53.0764      44 -53.0600      45 -53.1470
      46 -53.2616      47 -53.1529      48 -53.1161      49 -53.1024      50 -52.9996
      51 -53.0662      52 -53.1776      53 -53.1462      54 -53.2608      55 -52.1405
      56 -53.1632      57 -53.2969      58 -53.2698      59 -52.8274      60 -53.1460
      61 -52.8277      62 -53.1443      63 -52.9679      64 -53.2089      65 -53.1324
      66 -53.2534      67 -53.2937      68 -53.2684      69 -52.6521      70 -53.1883
      71 -52.9673      72 -53.2092



 E-fermi :   9.7631     XC(G=0):  -8.4368     alpha+bet :-16.1602


 k-point     1 :       0.0000    0.0000    0.0000
  band No.  band energies     occupation 
      1     -12.3286      2.00000
      2     -11.4641      2.00000
      3     -11.3176      2.00000
      4     -11.0973      2.00000
      5     -10.9974      2.00000
      6     -10.9022      2.00000
      7     -10.8587      2.00000
      8     -10.8245      2.00000
      9     -10.7821      2.00000
     10     -10.4149      2.00000
     11     -10.3885      2.00000
     12     -10.3712      2.00000
     13     -10.1940      2.00000
     14     -10.1872      2.00000
     15     -10.1636      2.00000
     16     -10.1455      2.00000
     17     -10.1056      2.00000
     18     -10.0972      2.00000
     19     -10.0503      2.00000
     20     -10.0420      2.00000
     21      -9.9145      2.00000
     22      -9.8052      2.00000
     23      -9.6034      2.00000
     24      -9.5816      2.00000
     25      -9.5417      2.00000
     26      -9.5085      2.00000
     27      -9.4610      2.00000
     28      -9.4441      2.00000
     29      -9.4107      2.00000
     30      -9.4032      2.00000
     31      -9.3105      2.00000
     32      -9.2974      2.00000
     33      -9.2439      2.00000
     34      -9.1402      2.00000
     35      -9.0797      2.00000
     36      -8.5307      2.00000
     37      -2.1300      2.00000
     38      -1.3866      2.00000
     39      -0.7443      2.00000
     40      -0.5403      2.00000
     41      -0.5006      2.00000
     42      -0.4838      2.00000
     43      -0.4389      2.00000
     44      -0.3848      2.00000
     45      -0.3754      2.00000
     46      -0.3718      2.00000
     47      -0.3547      2.00000
     48      -0.3347      2.00000
     49      -0.3165      2.00000
     50      -0.2958      2.00000
     51      -0.2895      2.00000
     52      -0.2765      2.00000
     53      -0.2518      2.00000
     54      -0.2432      2.00000
     55      -0.2027      2.00000
     56      -0.1650      2.00000
     57      -0.1179      2.00000
     58      -0.1003      2.00000
     59      -0.0139      2.00000
     60       0.0196      2.00000
     61       0.0370      2.00000
     62       0.0785      2.00000
     63       0.0857      2.00000
     64       0.1278      2.00000
     65       0.1446      2.00000
     66       0.1917      2.00000
     67       0.2460      2.00000
     68       0.5832      2.00000
     69       0.6194      2.00000
     70       0.6804      2.00000
     71       0.7306      2.00000
     72       0.7728      2.00000
     73       0.8454      2.00000
     74       0.8473      2.00000
     75       0.8504      2.00000
     76       1.1460      2.00000
     77       1.2985      2.00000
     78       1.3123      2.00000
     79       1.3326      2.00000
     80       1.3553      2.00000
     81       1.3766      2.00000
     82       1.4118      2.00000
     83       1.5010      2.00000
     84       2.1329      2.00000
     85       2.1646      2.00000
     86       2.3119      2.00000
     87       2.3151      2.00000
     88       2.3705      2.00000
     89       2.3973      2.00000
     90       2.6706      2.00000
     91       2.8742      2.00000
     92       2.8986      2.00000
     93       2.9146      2.00000
     94       2.9301      2.00000
     95       2.9807      2.00000
     96       2.9810      2.00000
     97       3.0737      2.00000
     98       3.1209      2.00000
     99       3.2019      2.00000
    100       3.2158      2.00000
    101       3.2424      2.00000
    102       3.2780      2.00000
    103       3.3305      2.00000
    104       3.3381      2.00000
    105       3.3462      2.00000
    106       3.3711      2.00000
    107       3.4515      2.00000
    108       3.4747      2.00000
    109       3.4963      2.00000
[...]
    175      14.4354      0.00000
    176      14.4577      0.00000
    177      14.7043      0.00000
    178      14.8688      0.00000
    179      14.9964      0.00000
    180      15.0242      0.00000
    181      15.1607      0.00000
    182      15.2956      0.00000
    183      15.5537      0.00000
    184      15.8748      0.00000
    185      15.9487      0.00000
    186      15.9614      0.00000
    187      15.9891      0.00000
    188      16.0384      0.00000
    189      16.0934      0.00000
    190      16.1549      0.00000
    191      16.1865      0.00000
    192      16.2368      0.00000


--------------------------------------------------------------------------------------------------------


 soft charge-density along one line, spin component           1
         0         1         2         3         4         5         6         7         8         9
 total charge-density along one line

 pseudopotential strength for first ion, spin component:           1
  8.089  13.793   0.000  -0.002  -0.000   0.001  -0.005  -0.001
 13.793  23.513   0.000  -0.003  -0.001   0.001  -0.008  -0.002
  0.000   0.000   1.947  -0.000   0.000   5.608  -0.000   0.000
 -0.002  -0.003  -0.000   1.947   0.000  -0.000   5.608   0.000
 -0.000  -0.001   0.000   0.000   1.947   0.000   0.000   5.607
  0.001   0.001   5.608  -0.000   0.000  16.054  -0.000   0.001
 -0.005  -0.008  -0.000   5.608   0.000  -0.000  16.054   0.000
 -0.001  -0.002   0.000   0.000   5.607   0.001   0.000  16.053
 total augmentation occupancy for first ion, spin component:           1
 42.214 -21.308  -0.051   0.277   0.064   0.008  -0.046  -0.007
-21.308  10.758   0.025  -0.139  -0.030  -0.004   0.023   0.004
 -0.051   0.025   2.573   0.014  -0.021  -0.369  -0.002   0.003
  0.277  -0.139   0.014   2.583  -0.024  -0.002  -0.370   0.004
  0.064  -0.030  -0.021  -0.024   2.600   0.003   0.004  -0.373
  0.008  -0.004  -0.369  -0.002   0.003   0.053   0.000  -0.000
 -0.046   0.023  -0.002  -0.370   0.004   0.000   0.053  -0.001
 -0.007   0.004   0.003   0.004  -0.373  -0.000  -0.001   0.054


------------------------ aborting loop because EDIFF is reached ----------------------------------------


    FORLOC:  cpu time    0.0311: real time    0.0311
    FORHF :  cpu time   28.2369: real time   28.2389
    FORNL :  cpu time    0.0374: real time    0.0375
    STRESS:  cpu time    0.1098: real time    0.1099
    FORCOR:  cpu time    0.0279: real time    0.0279
    OFIELD:  cpu time    0.0000: real time    0.0000

  FORCE on cell =-STRESS in cart. coord.  units (eV):
  Direction    XX          YY          ZZ          XY          YZ          ZX
  --------------------------------------------------------------------------------------
  Alpha Z   290.88493   290.88493   290.88493
  Ewald   -3673.05545 -3608.11537 -3484.02250    55.71392   -16.91329    29.75233
  Hartree   897.95420   908.13820   999.98157     8.60698    -1.05053     1.82797
  E(xc)    -784.23656  -784.38513  -782.70189    -0.12837     0.06149    -0.11115
  Local    -836.32679  -904.66288 -1116.48062   -58.46855    16.07904   -28.29685
  n-local   203.66147   206.16467   187.62164     2.15198    -1.01698     1.85073
  augment    23.89036    23.84110    24.68266    -0.04404     0.02319    -0.04277
  Kinetic  4275.68806  4264.25430  4281.72907    -9.96100     3.92838    -6.83510
  Fock     -384.24606  -384.59538  -384.13924    -0.29938     0.09335    -0.13851
  -------------------------------------------------------------------------------------
  Total      14.21415    11.52445    17.55561    -2.42846     1.20466    -1.99336
  in kB      30.76792    24.94580    38.00084    -5.25664     2.60760    -4.31483
  external pressure =       31.24 kB  Pullay stress =        0.00 kB


 VOLUME and BASIS-vectors are now :
 -----------------------------------------------------------------------------
  energy-cutoff  :      500.00
  volume of cell :      740.17
      direct lattice vectors                 reciprocal lattice vectors
     9.287201881  0.000000000  0.000000000     0.107675058  0.062166243 -0.000000000
    -4.643602965  8.042953793  0.000000000     0.000000000  0.124332431  0.000000000
     0.000000000  0.000000000  9.909069061     0.000000000 -0.000000000  0.100917654

  length of vectors
     9.287201881  9.287203789  9.909069061     0.124332457  0.124332431  0.100917654


 FORCES acting on ions:
    Electron-Ion                     Ewald-Force                    Non-Local-Force
 -----------------------------------------------------------------------------------------------
   -.750E+00 0.468E+00 0.210E+01   0.103E+01 -.624E+00 -.103E+01   -.290E+00 0.158E+00 -.115E+01
   -.182E+01 -.106E+02 0.247E+01   0.592E+00 0.823E+01 -.143E+01   0.130E+01 0.256E+01 -.110E+01
   -.468E+00 -.939E+00 0.524E+00   0.325E+00 0.106E+01 0.422E+00   0.158E+00 -.127E+00 -.101E+01
   -.156E+01 0.343E+01 0.844E+00   0.185E+01 -.139E+01 -.117E+01   -.314E+00 -.217E+01 0.335E+00
   0.752E+00 -.127E+01 -.121E+01   -.420E+00 0.122E+01 0.172E+01   -.364E+00 0.600E-01 -.537E+00
   -.378E+01 -.346E+00 0.835E+00   0.215E+01 -.928E+00 -.116E+01   0.172E+01 0.134E+01 0.329E+00
   0.151E+01 0.138E+00 -.116E+01   -.129E+01 -.370E+00 0.167E+01   -.244E+00 0.245E+00 -.551E+00
   -.718E-01 -.417E+01 -.293E+01   0.470E+00 0.352E+01 0.234E+01   -.407E+00 0.698E+00 0.625E+00
   0.872E-01 -.486E+00 0.168E+01   0.712E-01 0.461E+00 -.906E+00   -.156E+00 0.207E-01 -.822E+00
   0.175E+01 -.112E+01 0.309E+01   -.191E+01 0.119E+01 -.274E+01   0.156E+00 -.873E-01 -.393E+00
   -.112E+01 0.617E+00 -.191E+01   0.686E+00 -.368E+00 0.219E+01   0.456E+00 -.269E+00 -.284E+00
   0.832E+01 0.689E+01 0.250E+01   -.683E+01 -.462E+01 -.145E+01   -.163E+01 -.242E+01 -.113E+01
   0.555E+00 0.891E+00 0.544E+00   -.732E+00 -.824E+00 0.403E+00   0.183E+00 -.810E-01 -.101E+01
   0.363E+01 -.208E+01 -.657E+01   -.269E+01 0.154E+01 0.513E+01   -.993E+00 0.574E+00 0.153E+01
   0.809E+00 -.356E+00 0.267E+01   -.739E+00 0.340E+00 -.161E+01   -.759E-01 0.115E-01 -.113E+01
   0.358E+01 0.206E+01 -.294E+01   -.282E+01 -.209E+01 0.235E+01   -.815E+00 0.100E-01 0.633E+00
   0.510E+00 0.223E+00 0.168E+01   -.399E+00 -.329E+00 -.901E+00   -.120E+00 0.108E+00 -.827E+00
   -.341E+00 0.152E+00 0.411E+01   0.581E+00 -.310E+00 -.160E+01   -.266E+00 0.159E+00 -.265E+01
   0.310E+00 -.215E+00 0.346E+00   0.379E-01 0.968E-02 -.171E+00   -.368E+00 0.222E+00 -.205E+00
   0.137E+01 -.181E+01 0.399E+01   -.100E+01 0.152E+01 -.332E+01   -.392E+00 0.296E+00 -.732E+00
   -.394E+01 0.153E+00 -.138E+01   0.350E+01 0.833E+00 0.226E+01   0.470E+00 -.105E+01 -.935E+00
   -.111E+00 -.257E+01 0.720E-01   0.156E+00 0.233E+01 0.789E+00   -.496E-01 0.243E+00 -.915E+00
   -.683E+00 -.476E+01 0.252E+00   0.541E+00 0.366E+01 -.224E+00   0.146E+00 0.118E+01 -.329E-01
   0.206E+01 0.134E+01 0.897E-01   -.184E+01 -.128E+01 0.783E+00   -.225E+00 -.775E-01 -.934E+00
   0.373E+01 0.293E+01 0.237E+00   -.285E+01 -.226E+01 -.211E+00   -.938E+00 -.705E+00 -.291E-01
   0.674E+00 0.131E+01 0.623E+00   -.545E+00 -.147E+01 -.296E+00   -.147E+00 0.157E+00 -.345E+00
   0.770E+00 -.132E+01 0.673E+00   -.584E+00 0.942E+00 -.236E+00   -.200E+00 0.400E+00 -.471E+00
   0.157E+01 -.911E+00 -.444E+00   -.166E+01 0.968E+00 0.703E+00   0.926E-01 -.576E-01 -.272E+00
   -.124E+01 0.730E+00 0.114E+01   0.895E+00 -.521E+00 -.718E+00   0.385E+00 -.216E+00 -.453E+00
   0.220E+01 -.210E+00 0.400E+01   -.178E+01 0.530E-01 -.332E+01   -.454E+00 0.167E+00 -.739E+00
   -.205E+01 0.339E+01 -.133E+01   0.979E+00 -.349E+01 0.221E+01   0.114E+01 0.106E+00 -.942E+00
   -.173E+01 0.978E+00 0.663E+01   0.141E+01 -.795E+00 -.482E+01   0.343E+00 -.200E+00 -.195E+01
   0.289E+01 -.166E+01 0.183E+01   -.259E+01 0.148E+01 -.118E+01   -.322E+00 0.185E+00 -.705E+00
   -.904E+00 -.128E+01 0.684E+00   0.109E+01 0.124E+01 -.349E+00   -.191E+00 0.408E-01 -.357E+00
   0.152E+01 -.365E-01 0.640E+00   -.111E+01 0.596E-01 -.207E+00   -.439E+00 -.168E-01 -.462E+00
   -.195E+02 0.112E+02 0.605E+01   0.490E+01 -.278E+01 -.196E+01   0.146E+02 -.839E+01 -.410E+01
   -.421E+01 0.240E+01 0.131E+00   0.495E+01 -.280E+01 0.413E+00   -.653E+00 0.346E+00 -.481E+00
   -.178E+02 0.103E+02 -.188E+02   0.207E+02 -.119E+02 0.217E+02   -.253E+01 0.146E+01 -.262E+01
   -.853E+00 -.280E+01 -.139E+01   0.924E+00 0.283E+01 0.190E+01   -.601E-01 -.395E-01 -.466E+00
   0.134E+01 -.731E+01 0.132E+01   -.161E+01 0.788E+01 -.208E+01   0.240E+00 -.489E+00 0.692E+00
   -.348E+01 -.231E+01 -.155E+00   0.395E+01 0.297E+01 0.334E+00   -.423E+00 -.609E+00 -.175E+00
   0.594E-01 -.248E+00 0.201E+01   -.182E+00 -.110E+00 -.269E+01   0.108E+00 0.324E+00 0.599E+00
   0.264E+00 0.427E+01 -.198E+00   -.602E+00 -.503E+01 0.376E+00   0.305E+00 0.680E+00 -.169E+00
   0.295E+00 0.122E+00 0.200E+01   -.902E-01 0.112E+00 -.268E+01   -.190E+00 -.208E+00 0.597E+00
   -.714E-01 -.124E+01 0.254E+00   0.288E+00 0.133E+01 0.373E-01   -.200E+00 -.928E-01 -.265E+00
   -.152E+01 -.181E+01 -.336E+00   0.151E+01 0.171E+01 0.221E+00   0.510E-02 0.945E-01 0.896E-01
   0.283E+01 -.171E+01 -.219E+01   -.332E+01 0.203E+01 0.245E+01   0.439E+00 -.290E+00 -.243E+00
   -.314E-01 0.150E-01 0.332E+01   -.205E-01 0.982E-02 -.380E+01   0.408E-01 -.227E-01 0.415E+00
   0.198E+01 0.213E+01 -.142E+01   -.190E+01 -.218E+01 0.192E+01   -.824E-01 0.386E-01 -.463E+00
   0.699E+01 0.252E+01 0.133E+01   -.760E+01 -.258E+01 -.206E+01   0.537E+00 0.491E-01 0.673E+00
   0.699E+00 -.409E+00 0.115E+01   -.812E+00 0.479E+00 -.818E+00   0.100E+00 -.693E-01 -.302E+00
   0.624E+00 -.266E+00 0.721E-01   -.358E+00 0.789E-01 -.361E+00   -.239E+00 0.161E+00 0.250E+00
   0.106E+01 0.640E+00 0.282E+00   -.105E+01 -.848E+00 0.104E-01   -.130E-02 0.186E+00 -.266E+00
   0.894E+00 0.217E+01 -.325E+00   -.860E+00 -.211E+01 0.217E+00   -.338E-01 -.498E-01 0.815E-01
   0.958E+01 -.553E+01 -.404E+01   -.162E+02 0.933E+01 0.729E+01   0.597E+01 -.344E+01 -.295E+01
   -.124E+01 0.699E+00 -.106E+01   0.146E+01 -.821E+00 0.173E+00   -.211E+00 0.110E+00 0.799E+00
   -.148E+02 -.172E+02 0.141E+02   0.172E+02 0.199E+02 -.165E+02   -.212E+01 -.240E+01 0.214E+01
   -.128E+01 0.178E+00 -.249E+01   0.117E+01 -.275E+00 0.312E+01   0.975E-01 0.835E-01 -.572E+00
   -.242E+01 0.856E+00 -.724E+00   0.226E+01 -.330E+01 0.233E+01   0.136E+00 0.220E+01 -.146E+01
   -.871E-01 -.169E+01 -.294E+01   0.510E-01 0.166E+01 0.272E+01   0.280E-01 0.185E-01 0.190E+00
   -.202E+01 0.166E+01 -.732E+00   0.408E+01 -.279E+00 0.232E+01   -.185E+01 -.124E+01 -.144E+01
   0.141E+01 0.924E+00 -.292E+01   -.140E+01 -.858E+00 0.269E+01   -.136E-01 -.676E-01 0.206E+00
   0.589E+00 0.423E+01 0.102E+00   -.393E+00 -.527E+01 -.221E-01   -.180E+00 0.931E+00 -.808E-01
   0.339E+00 0.131E+01 -.374E+00   -.261E+00 -.168E+01 0.368E+00   -.672E-01 0.337E+00 0.112E-02
   0.385E+01 -.223E+01 -.465E+00   -.418E+01 0.242E+01 0.843E+00   0.301E+00 -.168E+00 -.347E+00
   0.101E+01 -.627E+00 -.343E+00   -.133E+01 0.816E+00 0.230E+00   0.287E+00 -.169E+00 0.101E+00
   0.762E+01 0.215E+02 0.140E+02   -.879E+01 -.249E+02 -.165E+02   0.105E+01 0.304E+01 0.215E+01
   -.786E+00 0.107E+01 -.252E+01   0.810E+00 -.966E+00 0.317E+01   -.177E-01 -.918E-01 -.583E+00
   0.270E+01 -.154E+01 0.205E+01   -.295E+01 0.169E+01 -.270E+01   0.182E+00 -.119E+00 0.555E+00
   0.827E+00 -.463E+00 -.277E+01   -.759E+00 0.416E+00 0.297E+01   -.596E-01 0.405E-01 -.185E+00
   -.338E+01 -.259E+01 0.860E-01   0.438E+01 0.290E+01 0.875E-04   -.900E+00 -.280E+00 -.795E-01
   -.103E+01 -.103E+01 -.379E+00   0.142E+01 0.114E+01 0.348E+00   -.350E+00 -.102E+00 0.213E-01
 -----------------------------------------------------------------------------------------------
   -.119E+02 0.688E+01 0.278E+02   -.415E-13 0.493E-13 0.890E-13   0.113E+02 -.677E+01 -.273E+02


 POSITION                                       TOTAL-FORCE (eV/Angst)
 -----------------------------------------------------------------------------------
      0.02580      1.80325      9.87226         0.005091     -0.002995      0.005013
     -1.57086      4.33324      4.98023         0.002247     -0.006103      0.006695
     -1.53897      4.50232      9.87736         0.007300     -0.002693      0.003870
     -3.06392      7.17964      4.91415        -0.002763     -0.002374      0.003387
     -3.08376      7.18318      9.89011        -0.006950      0.005497      0.007498
      3.11303      1.79133      4.91453        -0.005102     -0.000549     -0.004198
      3.09910      1.80591      9.89049        -0.001357      0.001828     -0.006080
      1.58435      4.47629      4.91671         0.011001      0.003987      0.001415
      1.56482      4.49646      9.87120         0.012307     -0.003365      0.003578
      0.01470      7.17452      4.92472        -0.001682     -0.009224     -0.002674
      0.00724      7.17697      9.90531         0.000709     -0.000596      0.008237
      6.32672      1.92532      4.98144        -0.012638     -0.000919     -0.003967
      6.19496      1.80957      9.87731        -0.000783     -0.005625      0.006301
      4.63582      4.50337      4.91509         0.013053     -0.001677      0.001939
      4.64394      4.49843      9.86815         0.002487     -0.003693      0.005427
      3.13485      7.16089      4.91687        -0.004690     -0.010902      0.005404
      3.10709      7.16467      9.87123        -0.000435     -0.000083      0.000985
      1.56128      0.91886      2.52323        -0.003252     -0.007614      0.000197
      1.56901      0.91038      7.34996         0.006089      0.004767     -0.009521
      0.03598      3.58310      2.40994        -0.000052     -0.008352     -0.004634
     -0.00864      3.62201      7.42292         0.007493      0.003900      0.000344
     -1.53371      6.26356      2.49041         0.002606     -0.005820     -0.003857
     -1.54126      6.30222      7.41470        -0.003836      0.009628      0.001812
      4.67466      0.92976      2.48976         0.003202     -0.012607     -0.008822
      4.63410      0.91159      7.41428        -0.002181      0.008395      0.004765
      3.11179      3.59650      2.45056        -0.006760     -0.007952      0.003259
      3.10543      3.59144      7.39411        -0.001354      0.003315     -0.000145
      1.56504      6.27773      2.45428        -0.002941      0.004693      0.004316
      1.55119      6.28299      7.39166         0.015692      0.008893      0.005379
      7.78014      0.90639      2.40998        -0.003387     -0.001532     -0.003295
      7.72131      0.92220      7.42363         0.003828     -0.001138     -0.000203
      6.18789      3.61030      2.41633         0.000396     -0.001063     -0.004753
      6.20193      3.60034      7.42307        -0.004852      0.001854     -0.005709
      4.65990      6.27862      2.45093         0.008791      0.003259     -0.001001
      4.65846      6.28246      7.39310         0.004374      0.010719      0.003422
     -0.53579      2.12830      5.11716        -0.015377      0.001696     -0.000534
      0.03249      1.80191      1.83222         0.006672     -0.007366      0.006548
      0.01227      1.81052      6.80273        -0.012837      0.012944     -0.000921
     -1.52386      4.48657      1.85246         0.005421     -0.018148     -0.004533
     -1.54969      4.53191      6.89205         0.005751      0.002284      0.005392
     -3.07867      7.17007      1.86981        -0.001488     -0.009894     -0.004338
     -3.08793      7.16708      6.81944         0.000001      0.005866     -0.005346
      3.11538      1.81084      1.86950         0.003181     -0.000077      0.000316
      3.11024      1.81563      6.81954        -0.005410      0.003108     -0.002573
      1.57243      4.50057      1.84113        -0.003617     -0.007955      0.004451
      1.55007      4.48859      6.81600        -0.009206      0.003477     -0.006768
      0.01506      7.17474      1.88867        -0.000912      0.001033     -0.001267
      0.00887      7.17565      6.82543        -0.005060      0.001736     -0.000820
      6.21959      1.80829      1.85221        -0.006014     -0.003618     -0.003193
      6.16338      1.80403      6.89271         0.006488      0.002487      0.003853
      4.63915      4.50300      1.83036         0.002025     -0.005262      0.000391
      4.64984      4.49431      6.81958         0.002650     -0.004866     -0.001270
      3.10811      7.16031      1.84120         0.004778     -0.001732      0.001586
      3.10485      7.18215      6.81615        -0.002930      0.011050     -0.009132
      1.61335      0.88753      4.36001         0.012990     -0.003622     -0.007054
      1.55990      0.91747      9.26311        -0.007086      0.004307      0.002073
      0.10677      3.56690      4.27531        -0.012943      0.005161     -0.003198
      0.01400      3.59685      9.30005         0.001239     -0.002872      0.000400
     -1.51533      6.20951      4.37590        -0.003614      0.007195     -0.009354
     -1.53525      6.29500      9.31208        -0.002201     -0.009379     -0.000450
      4.72908      0.93903      4.37536        -0.005200     -0.002182     -0.001818
      4.64402      0.91143      9.31213        -0.000243     -0.006354      0.001255
      3.11491      3.59650      4.33974        -0.002023     -0.001249     -0.006388
      3.10239      3.59471      9.28407         0.005825      0.005183      0.001901
      1.57630      6.27091      4.34678         0.004355      0.002139     -0.004542
      1.55303      6.28296      9.28601         0.000798      0.003061      0.006543
      7.82777      0.85229      4.27503        -0.006000      0.014505      0.004856
      7.75449      0.91513      9.30027         0.007370      0.008833      0.004525
      6.10737      3.65671      4.25817        -0.013724      0.005428     -0.002068
      6.19639      3.60340      9.31182         0.001701     -0.000405      0.004415
      4.66137      6.27466      4.33964         0.002178      0.004712      0.001961
      4.65642      6.28448      9.28361         0.000812      0.004912      0.000718
 -----------------------------------------------------------------------------------
    total drift:                               -0.105591     -0.162664      0.017609


--------------------------------------------------------------------------------------------------------



  FREE ENERGIE OF THE ION-ELECTRON SYSTEM (eV)
  ---------------------------------------------------
  free  energy   TOTEN  =      -648.18942841 eV

  energy  without entropy=     -648.18942841  energy(sigma->0) =     -648.18942841



--------------------------------------------------------------------------------------------------------


    POTLOK:  cpu time    0.0715: real time    0.0715


--------------------------------------------------------------------------------------------------------


 writing wavefunctions
     LOOP+:  cpu time  321.7455: real time  322.3105
    4ORBIT:  cpu time    0.0000: real time    0.0000

 total amount of memory used by VASP on root node    61833. kBytes
========================================================================

   base      :      30000. kBytes
   nonlr-proj:      15615. kBytes
   fftplans  :       2473. kBytes
   grid      :       2401. kBytes
   one-center:         55. kBytes
   HF        :          9. kBytes
   wavefun   :      11280. kBytes

  
  
 General timing and accounting informations for this job:
 ========================================================
  
                  Total CPU time used (sec):      339.153
                            User time (sec):      332.221
                          System time (sec):        6.932
                         Elapsed time (sec):      346.162
  
                   Maximum memory used (kb):      378400.
                   Average memory used (kb):           0.
  
                          Minor page faults:        39035
                          Major page faults:         1094
                 Voluntary context switches:          826
